   3   3   1   0
  0.1053756E+03  0.3427808E-09  0.3427808E-09  0.3106689E-08  0.5000000E-15
  1.000000000000000E-004
  CAR 
 unknown system                          
     11.52713813    -50.42352283 2001     -3.02424493      1.00000000
    -50.424  0.0000E+00  0.0000E+00
    -50.393  0.0000E+00  0.0000E+00
    -50.362  0.0000E+00  0.0000E+00
    -50.331  0.0000E+00  0.0000E+00
    -50.300  0.0000E+00  0.0000E+00
    -50.269  0.0000E+00  0.0000E+00
    -50.238  0.0000E+00  0.0000E+00
    -50.207  0.0000E+00  0.0000E+00
    -50.176  0.0000E+00  0.0000E+00
    -50.145  0.0000E+00  0.0000E+00
    -50.114  0.0000E+00  0.0000E+00
    -50.083  0.0000E+00  0.0000E+00
    -50.052  0.0000E+00  0.0000E+00
    -50.021  0.0000E+00  0.0000E+00
    -49.990  0.0000E+00  0.0000E+00
    -49.959  0.0000E+00  0.0000E+00
    -49.928  0.0000E+00  0.0000E+00
    -49.897  0.0000E+00  0.0000E+00
    -49.866  0.0000E+00  0.0000E+00
    -49.835  0.0000E+00  0.0000E+00
    -49.804  0.0000E+00  0.0000E+00
    -49.773  0.0000E+00  0.0000E+00
    -49.742  0.0000E+00  0.0000E+00
    -49.711  0.0000E+00  0.0000E+00
    -49.680  0.0000E+00  0.0000E+00
    -49.649  0.0000E+00  0.0000E+00
    -49.618  0.0000E+00  0.0000E+00
    -49.587  0.0000E+00  0.0000E+00
    -49.556  0.0000E+00  0.0000E+00
    -49.525  0.0000E+00  0.0000E+00
    -49.494  0.0000E+00  0.0000E+00
    -49.463  0.0000E+00  0.0000E+00
    -49.432  0.0000E+00  0.0000E+00
    -49.401  0.0000E+00  0.0000E+00
    -49.370  0.0000E+00  0.0000E+00
    -49.339  0.0000E+00  0.0000E+00
    -49.308  0.0000E+00  0.0000E+00
    -49.277  0.0000E+00  0.0000E+00
    -49.246  0.0000E+00  0.0000E+00
    -49.215  0.0000E+00  0.0000E+00
    -49.185  0.0000E+00  0.0000E+00
    -49.154  0.0000E+00  0.0000E+00
    -49.123  0.0000E+00  0.0000E+00
    -49.092  0.0000E+00  0.0000E+00
    -49.061  0.0000E+00  0.0000E+00
    -49.030  0.0000E+00  0.0000E+00
    -48.999  0.0000E+00  0.0000E+00
    -48.968  0.0000E+00  0.0000E+00
    -48.937  0.0000E+00  0.0000E+00
    -48.906  0.0000E+00  0.0000E+00
    -48.875  0.0000E+00  0.0000E+00
    -48.844  0.0000E+00  0.0000E+00
    -48.813  0.0000E+00  0.0000E+00
    -48.782  0.0000E+00  0.0000E+00
    -48.751  0.0000E+00  0.0000E+00
    -48.720  0.0000E+00  0.0000E+00
    -48.689  0.0000E+00  0.0000E+00
    -48.658  0.0000E+00  0.0000E+00
    -48.627  0.0000E+00  0.0000E+00
    -48.596  0.0000E+00  0.0000E+00
    -48.565  0.0000E+00  0.0000E+00
    -48.534  0.0000E+00  0.0000E+00
    -48.503  0.0000E+00  0.0000E+00
    -48.472  0.0000E+00  0.0000E+00
    -48.441  0.0000E+00  0.0000E+00
    -48.410  0.0000E+00  0.0000E+00
    -48.379  0.0000E+00  0.0000E+00
    -48.348  0.0000E+00  0.0000E+00
    -48.317  0.0000E+00  0.0000E+00
    -48.286  0.0000E+00  0.0000E+00
    -48.255  0.0000E+00  0.0000E+00
    -48.224  0.0000E+00  0.0000E+00
    -48.193  0.0000E+00  0.0000E+00
    -48.162  0.0000E+00  0.0000E+00
    -48.131  0.0000E+00  0.0000E+00
    -48.100  0.0000E+00  0.0000E+00
    -48.069  0.0000E+00  0.0000E+00
    -48.038  0.0000E+00  0.0000E+00
    -48.007  0.0000E+00  0.0000E+00
    -47.976  0.0000E+00  0.0000E+00
    -47.945  0.0000E+00  0.0000E+00
    -47.915  0.0000E+00  0.0000E+00
    -47.884  0.0000E+00  0.0000E+00
    -47.853  0.0000E+00  0.0000E+00
    -47.822  0.0000E+00  0.0000E+00
    -47.791  0.0000E+00  0.0000E+00
    -47.760  0.0000E+00  0.0000E+00
    -47.729  0.0000E+00  0.0000E+00
    -47.698  0.0000E+00  0.0000E+00
    -47.667  0.0000E+00  0.0000E+00
    -47.636  0.0000E+00  0.0000E+00
    -47.605  0.1249E+03  0.1582E+00
    -47.574  0.2596E+02  0.1000E+01
    -47.543  0.0000E+00  0.1000E+01
    -47.512  0.0000E+00  0.1000E+01
    -47.481  0.0000E+00  0.1000E+01
    -47.450  0.0000E+00  0.1000E+01
    -47.419  0.0000E+00  0.1000E+01
    -47.388  0.0000E+00  0.1000E+01
    -47.357  0.0000E+00  0.1000E+01
    -47.326  0.0000E+00  0.1000E+01
    -47.295  0.0000E+00  0.1000E+01
    -47.264  0.0000E+00  0.1000E+01
    -47.233  0.3228E+02  0.2000E+01
    -47.202  0.0000E+00  0.2000E+01
    -47.171  0.0000E+00  0.2000E+01
    -47.140  0.0000E+00  0.2000E+01
    -47.109  0.0000E+00  0.2000E+01
    -47.078  0.0000E+00  0.2000E+01
    -47.047  0.0000E+00  0.2000E+01
    -47.016  0.0000E+00  0.2000E+01
    -46.985  0.0000E+00  0.2000E+01
    -46.954  0.0000E+00  0.2000E+01
    -46.923  0.0000E+00  0.2000E+01
    -46.892  0.0000E+00  0.2000E+01
    -46.861  0.1264E+03  0.2310E+01
    -46.830  0.2007E+02  0.3000E+01
    -46.799  0.0000E+00  0.3000E+01
    -46.768  0.0000E+00  0.3000E+01
    -46.737  0.0000E+00  0.3000E+01
    -46.706  0.0000E+00  0.3000E+01
    -46.676  0.0000E+00  0.3000E+01
    -46.645  0.0000E+00  0.3000E+01
    -46.614  0.0000E+00  0.3000E+01
    -46.583  0.0000E+00  0.3000E+01
    -46.552  0.0000E+00  0.3000E+01
    -46.521  0.0000E+00  0.3000E+01
    -46.490  0.0000E+00  0.3000E+01
    -46.459  0.0000E+00  0.3000E+01
    -46.428  0.0000E+00  0.3000E+01
    -46.397  0.0000E+00  0.3000E+01
    -46.366  0.0000E+00  0.3000E+01
    -46.335  0.0000E+00  0.3000E+01
    -46.304  0.0000E+00  0.3000E+01
    -46.273  0.0000E+00  0.3000E+01
    -46.242  0.0000E+00  0.3000E+01
    -46.211  0.0000E+00  0.3000E+01
    -46.180  0.0000E+00  0.3000E+01
    -46.149  0.0000E+00  0.3000E+01
    -46.118  0.0000E+00  0.3000E+01
    -46.087  0.0000E+00  0.3000E+01
    -46.056  0.0000E+00  0.3000E+01
    -46.025  0.0000E+00  0.3000E+01
    -45.994  0.0000E+00  0.3000E+01
    -45.963  0.0000E+00  0.3000E+01
    -45.932  0.0000E+00  0.3000E+01
    -45.901  0.0000E+00  0.3000E+01
    -45.870  0.0000E+00  0.3000E+01
    -45.839  0.0000E+00  0.3000E+01
    -45.808  0.0000E+00  0.3000E+01
    -45.777  0.0000E+00  0.3000E+01
    -45.746  0.0000E+00  0.3000E+01
    -45.715  0.0000E+00  0.3000E+01
    -45.684  0.0000E+00  0.3000E+01
    -45.653  0.0000E+00  0.3000E+01
    -45.622  0.0000E+00  0.3000E+01
    -45.591  0.0000E+00  0.3000E+01
    -45.560  0.0000E+00  0.3000E+01
    -45.529  0.0000E+00  0.3000E+01
    -45.498  0.0000E+00  0.3000E+01
    -45.467  0.0000E+00  0.3000E+01
    -45.436  0.0000E+00  0.3000E+01
    -45.406  0.0000E+00  0.3000E+01
    -45.375  0.0000E+00  0.3000E+01
    -45.344  0.0000E+00  0.3000E+01
    -45.313  0.0000E+00  0.3000E+01
    -45.282  0.0000E+00  0.3000E+01
    -45.251  0.0000E+00  0.3000E+01
    -45.220  0.0000E+00  0.3000E+01
    -45.189  0.0000E+00  0.3000E+01
    -45.158  0.0000E+00  0.3000E+01
    -45.127  0.0000E+00  0.3000E+01
    -45.096  0.0000E+00  0.3000E+01
    -45.065  0.0000E+00  0.3000E+01
    -45.034  0.0000E+00  0.3000E+01
    -45.003  0.0000E+00  0.3000E+01
    -44.972  0.0000E+00  0.3000E+01
    -44.941  0.0000E+00  0.3000E+01
    -44.910  0.0000E+00  0.3000E+01
    -44.879  0.0000E+00  0.3000E+01
    -44.848  0.0000E+00  0.3000E+01
    -44.817  0.0000E+00  0.3000E+01
    -44.786  0.0000E+00  0.3000E+01
    -44.755  0.0000E+00  0.3000E+01
    -44.724  0.0000E+00  0.3000E+01
    -44.693  0.0000E+00  0.3000E+01
    -44.662  0.0000E+00  0.3000E+01
    -44.631  0.0000E+00  0.3000E+01
    -44.600  0.0000E+00  0.3000E+01
    -44.569  0.0000E+00  0.3000E+01
    -44.538  0.0000E+00  0.3000E+01
    -44.507  0.0000E+00  0.3000E+01
    -44.476  0.0000E+00  0.3000E+01
    -44.445  0.0000E+00  0.3000E+01
    -44.414  0.0000E+00  0.3000E+01
    -44.383  0.0000E+00  0.3000E+01
    -44.352  0.0000E+00  0.3000E+01
    -44.321  0.5428E+02  0.3615E+01
    -44.290  0.1100E+02  0.4000E+01
    -44.259  0.0000E+00  0.4000E+01
    -44.228  0.0000E+00  0.4000E+01
    -44.197  0.0000E+00  0.4000E+01
    -44.167  0.0000E+00  0.4000E+01
    -44.136  0.0000E+00  0.4000E+01
    -44.105  0.0000E+00  0.4000E+01
    -44.074  0.0000E+00  0.4000E+01
    -44.043  0.0000E+00  0.4000E+01
    -44.012  0.0000E+00  0.4000E+01
    -43.981  0.0000E+00  0.4000E+01
    -43.950  0.1928E+03  0.4478E+01
    -43.919  0.1508E+02  0.5000E+01
    -43.888  0.0000E+00  0.5000E+01
    -43.857  0.0000E+00  0.5000E+01
    -43.826  0.0000E+00  0.5000E+01
    -43.795  0.0000E+00  0.5000E+01
    -43.764  0.0000E+00  0.5000E+01
    -43.733  0.9656E+02  0.5208E+01
    -43.702  0.2340E+02  0.6000E+01
    -43.671  0.0000E+00  0.6000E+01
    -43.640  0.0000E+00  0.6000E+01
    -43.609  0.0000E+00  0.6000E+01
    -43.578  0.0000E+00  0.6000E+01
    -43.547  0.0000E+00  0.6000E+01
    -43.516  0.0000E+00  0.6000E+01
    -43.485  0.0000E+00  0.6000E+01
    -43.454  0.0000E+00  0.6000E+01
    -43.423  0.0000E+00  0.6000E+01
    -43.392  0.0000E+00  0.6000E+01
    -43.361  0.0000E+00  0.6000E+01
    -43.330  0.0000E+00  0.6000E+01
    -43.299  0.0000E+00  0.6000E+01
    -43.268  0.0000E+00  0.6000E+01
    -43.237  0.0000E+00  0.6000E+01
    -43.206  0.0000E+00  0.6000E+01
    -43.175  0.0000E+00  0.6000E+01
    -43.144  0.0000E+00  0.6000E+01
    -43.113  0.0000E+00  0.6000E+01
    -43.082  0.0000E+00  0.6000E+01
    -43.051  0.0000E+00  0.6000E+01
    -43.020  0.0000E+00  0.6000E+01
    -42.989  0.0000E+00  0.6000E+01
    -42.958  0.0000E+00  0.6000E+01
    -42.927  0.0000E+00  0.6000E+01
    -42.897  0.0000E+00  0.6000E+01
    -42.866  0.0000E+00  0.6000E+01
    -42.835  0.0000E+00  0.6000E+01
    -42.804  0.0000E+00  0.6000E+01
    -42.773  0.0000E+00  0.6000E+01
    -42.742  0.0000E+00  0.6000E+01
    -42.711  0.0000E+00  0.6000E+01
    -42.680  0.0000E+00  0.6000E+01
    -42.649  0.0000E+00  0.6000E+01
    -42.618  0.0000E+00  0.6000E+01
    -42.587  0.0000E+00  0.6000E+01
    -42.556  0.0000E+00  0.6000E+01
    -42.525  0.0000E+00  0.6000E+01
    -42.494  0.0000E+00  0.6000E+01
    -42.463  0.0000E+00  0.6000E+01
    -42.432  0.0000E+00  0.6000E+01
    -42.401  0.0000E+00  0.6000E+01
    -42.370  0.0000E+00  0.6000E+01
    -42.339  0.0000E+00  0.6000E+01
    -42.308  0.0000E+00  0.6000E+01
    -42.277  0.0000E+00  0.6000E+01
    -42.246  0.0000E+00  0.6000E+01
    -42.215  0.0000E+00  0.6000E+01
    -42.184  0.0000E+00  0.6000E+01
    -42.153  0.0000E+00  0.6000E+01
    -42.122  0.0000E+00  0.6000E+01
    -42.091  0.0000E+00  0.6000E+01
    -42.060  0.0000E+00  0.6000E+01
    -42.029  0.0000E+00  0.6000E+01
    -41.998  0.0000E+00  0.6000E+01
    -41.967  0.0000E+00  0.6000E+01
    -41.936  0.0000E+00  0.6000E+01
    -41.905  0.0000E+00  0.6000E+01
    -41.874  0.0000E+00  0.6000E+01
    -41.843  0.0000E+00  0.6000E+01
    -41.812  0.0000E+00  0.6000E+01
    -41.781  0.0000E+00  0.6000E+01
    -41.750  0.0000E+00  0.6000E+01
    -41.719  0.0000E+00  0.6000E+01
    -41.688  0.0000E+00  0.6000E+01
    -41.658  0.0000E+00  0.6000E+01
    -41.627  0.0000E+00  0.6000E+01
    -41.596  0.0000E+00  0.6000E+01
    -41.565  0.0000E+00  0.6000E+01
    -41.534  0.0000E+00  0.6000E+01
    -41.503  0.0000E+00  0.6000E+01
    -41.472  0.0000E+00  0.6000E+01
    -41.441  0.0000E+00  0.6000E+01
    -41.410  0.0000E+00  0.6000E+01
    -41.379  0.0000E+00  0.6000E+01
    -41.348  0.0000E+00  0.6000E+01
    -41.317  0.0000E+00  0.6000E+01
    -41.286  0.0000E+00  0.6000E+01
    -41.255  0.0000E+00  0.6000E+01
    -41.224  0.0000E+00  0.6000E+01
    -41.193  0.0000E+00  0.6000E+01
    -41.162  0.0000E+00  0.6000E+01
    -41.131  0.0000E+00  0.6000E+01
    -41.100  0.0000E+00  0.6000E+01
    -41.069  0.0000E+00  0.6000E+01
    -41.038  0.0000E+00  0.6000E+01
    -41.007  0.0000E+00  0.6000E+01
    -40.976  0.0000E+00  0.6000E+01
    -40.945  0.0000E+00  0.6000E+01
    -40.914  0.0000E+00  0.6000E+01
    -40.883  0.0000E+00  0.6000E+01
    -40.852  0.0000E+00  0.6000E+01
    -40.821  0.0000E+00  0.6000E+01
    -40.790  0.0000E+00  0.6000E+01
    -40.759  0.0000E+00  0.6000E+01
    -40.728  0.0000E+00  0.6000E+01
    -40.697  0.0000E+00  0.6000E+01
    -40.666  0.0000E+00  0.6000E+01
    -40.635  0.0000E+00  0.6000E+01
    -40.604  0.0000E+00  0.6000E+01
    -40.573  0.0000E+00  0.6000E+01
    -40.542  0.0000E+00  0.6000E+01
    -40.511  0.0000E+00  0.6000E+01
    -40.480  0.0000E+00  0.6000E+01
    -40.449  0.0000E+00  0.6000E+01
    -40.418  0.0000E+00  0.6000E+01
    -40.388  0.0000E+00  0.6000E+01
    -40.357  0.0000E+00  0.6000E+01
    -40.326  0.0000E+00  0.6000E+01
    -40.295  0.0000E+00  0.6000E+01
    -40.264  0.0000E+00  0.6000E+01
    -40.233  0.0000E+00  0.6000E+01
    -40.202  0.0000E+00  0.6000E+01
    -40.171  0.0000E+00  0.6000E+01
    -40.140  0.0000E+00  0.6000E+01
    -40.109  0.0000E+00  0.6000E+01
    -40.078  0.0000E+00  0.6000E+01
    -40.047  0.0000E+00  0.6000E+01
    -40.016  0.0000E+00  0.6000E+01
    -39.985  0.0000E+00  0.6000E+01
    -39.954  0.0000E+00  0.6000E+01
    -39.923  0.0000E+00  0.6000E+01
    -39.892  0.0000E+00  0.6000E+01
    -39.861  0.0000E+00  0.6000E+01
    -39.830  0.0000E+00  0.6000E+01
    -39.799  0.0000E+00  0.6000E+01
    -39.768  0.0000E+00  0.6000E+01
    -39.737  0.0000E+00  0.6000E+01
    -39.706  0.0000E+00  0.6000E+01
    -39.675  0.0000E+00  0.6000E+01
    -39.644  0.0000E+00  0.6000E+01
    -39.613  0.0000E+00  0.6000E+01
    -39.582  0.0000E+00  0.6000E+01
    -39.551  0.0000E+00  0.6000E+01
    -39.520  0.0000E+00  0.6000E+01
    -39.489  0.0000E+00  0.6000E+01
    -39.458  0.0000E+00  0.6000E+01
    -39.427  0.0000E+00  0.6000E+01
    -39.396  0.0000E+00  0.6000E+01
    -39.365  0.0000E+00  0.6000E+01
    -39.334  0.0000E+00  0.6000E+01
    -39.303  0.0000E+00  0.6000E+01
    -39.272  0.0000E+00  0.6000E+01
    -39.241  0.0000E+00  0.6000E+01
    -39.210  0.0000E+00  0.6000E+01
    -39.179  0.0000E+00  0.6000E+01
    -39.149  0.0000E+00  0.6000E+01
    -39.118  0.0000E+00  0.6000E+01
    -39.087  0.0000E+00  0.6000E+01
    -39.056  0.0000E+00  0.6000E+01
    -39.025  0.0000E+00  0.6000E+01
    -38.994  0.0000E+00  0.6000E+01
    -38.963  0.0000E+00  0.6000E+01
    -38.932  0.0000E+00  0.6000E+01
    -38.901  0.0000E+00  0.6000E+01
    -38.870  0.0000E+00  0.6000E+01
    -38.839  0.0000E+00  0.6000E+01
    -38.808  0.0000E+00  0.6000E+01
    -38.777  0.0000E+00  0.6000E+01
    -38.746  0.0000E+00  0.6000E+01
    -38.715  0.0000E+00  0.6000E+01
    -38.684  0.0000E+00  0.6000E+01
    -38.653  0.0000E+00  0.6000E+01
    -38.622  0.0000E+00  0.6000E+01
    -38.591  0.0000E+00  0.6000E+01
    -38.560  0.0000E+00  0.6000E+01
    -38.529  0.0000E+00  0.6000E+01
    -38.498  0.0000E+00  0.6000E+01
    -38.467  0.0000E+00  0.6000E+01
    -38.436  0.0000E+00  0.6000E+01
    -38.405  0.0000E+00  0.6000E+01
    -38.374  0.0000E+00  0.6000E+01
    -38.343  0.0000E+00  0.6000E+01
    -38.312  0.0000E+00  0.6000E+01
    -38.281  0.0000E+00  0.6000E+01
    -38.250  0.0000E+00  0.6000E+01
    -38.219  0.0000E+00  0.6000E+01
    -38.188  0.0000E+00  0.6000E+01
    -38.157  0.0000E+00  0.6000E+01
    -38.126  0.0000E+00  0.6000E+01
    -38.095  0.0000E+00  0.6000E+01
    -38.064  0.0000E+00  0.6000E+01
    -38.033  0.0000E+00  0.6000E+01
    -38.002  0.0000E+00  0.6000E+01
    -37.971  0.0000E+00  0.6000E+01
    -37.940  0.0000E+00  0.6000E+01
    -37.909  0.0000E+00  0.6000E+01
    -37.879  0.0000E+00  0.6000E+01
    -37.848  0.0000E+00  0.6000E+01
    -37.817  0.0000E+00  0.6000E+01
    -37.786  0.0000E+00  0.6000E+01
    -37.755  0.0000E+00  0.6000E+01
    -37.724  0.0000E+00  0.6000E+01
    -37.693  0.0000E+00  0.6000E+01
    -37.662  0.0000E+00  0.6000E+01
    -37.631  0.0000E+00  0.6000E+01
    -37.600  0.0000E+00  0.6000E+01
    -37.569  0.0000E+00  0.6000E+01
    -37.538  0.0000E+00  0.6000E+01
    -37.507  0.0000E+00  0.6000E+01
    -37.476  0.0000E+00  0.6000E+01
    -37.445  0.0000E+00  0.6000E+01
    -37.414  0.0000E+00  0.6000E+01
    -37.383  0.0000E+00  0.6000E+01
    -37.352  0.0000E+00  0.6000E+01
    -37.321  0.0000E+00  0.6000E+01
    -37.290  0.0000E+00  0.6000E+01
    -37.259  0.0000E+00  0.6000E+01
    -37.228  0.0000E+00  0.6000E+01
    -37.197  0.0000E+00  0.6000E+01
    -37.166  0.0000E+00  0.6000E+01
    -37.135  0.0000E+00  0.6000E+01
    -37.104  0.0000E+00  0.6000E+01
    -37.073  0.0000E+00  0.6000E+01
    -37.042  0.0000E+00  0.6000E+01
    -37.011  0.0000E+00  0.6000E+01
    -36.980  0.0000E+00  0.6000E+01
    -36.949  0.0000E+00  0.6000E+01
    -36.918  0.0000E+00  0.6000E+01
    -36.887  0.0000E+00  0.6000E+01
    -36.856  0.0000E+00  0.6000E+01
    -36.825  0.0000E+00  0.6000E+01
    -36.794  0.0000E+00  0.6000E+01
    -36.763  0.0000E+00  0.6000E+01
    -36.732  0.0000E+00  0.6000E+01
    -36.701  0.0000E+00  0.6000E+01
    -36.670  0.0000E+00  0.6000E+01
    -36.640  0.0000E+00  0.6000E+01
    -36.609  0.0000E+00  0.6000E+01
    -36.578  0.0000E+00  0.6000E+01
    -36.547  0.0000E+00  0.6000E+01
    -36.516  0.0000E+00  0.6000E+01
    -36.485  0.0000E+00  0.6000E+01
    -36.454  0.0000E+00  0.6000E+01
    -36.423  0.0000E+00  0.6000E+01
    -36.392  0.0000E+00  0.6000E+01
    -36.361  0.0000E+00  0.6000E+01
    -36.330  0.0000E+00  0.6000E+01
    -36.299  0.0000E+00  0.6000E+01
    -36.268  0.0000E+00  0.6000E+01
    -36.237  0.0000E+00  0.6000E+01
    -36.206  0.0000E+00  0.6000E+01
    -36.175  0.0000E+00  0.6000E+01
    -36.144  0.0000E+00  0.6000E+01
    -36.113  0.0000E+00  0.6000E+01
    -36.082  0.0000E+00  0.6000E+01
    -36.051  0.0000E+00  0.6000E+01
    -36.020  0.0000E+00  0.6000E+01
    -35.989  0.0000E+00  0.6000E+01
    -35.958  0.0000E+00  0.6000E+01
    -35.927  0.0000E+00  0.6000E+01
    -35.896  0.0000E+00  0.6000E+01
    -35.865  0.0000E+00  0.6000E+01
    -35.834  0.0000E+00  0.6000E+01
    -35.803  0.0000E+00  0.6000E+01
    -35.772  0.0000E+00  0.6000E+01
    -35.741  0.0000E+00  0.6000E+01
    -35.710  0.0000E+00  0.6000E+01
    -35.679  0.0000E+00  0.6000E+01
    -35.648  0.0000E+00  0.6000E+01
    -35.617  0.0000E+00  0.6000E+01
    -35.586  0.0000E+00  0.6000E+01
    -35.555  0.0000E+00  0.6000E+01
    -35.524  0.0000E+00  0.6000E+01
    -35.493  0.0000E+00  0.6000E+01
    -35.462  0.0000E+00  0.6000E+01
    -35.431  0.0000E+00  0.6000E+01
    -35.400  0.0000E+00  0.6000E+01
    -35.370  0.0000E+00  0.6000E+01
    -35.339  0.0000E+00  0.6000E+01
    -35.308  0.0000E+00  0.6000E+01
    -35.277  0.0000E+00  0.6000E+01
    -35.246  0.0000E+00  0.6000E+01
    -35.215  0.0000E+00  0.6000E+01
    -35.184  0.0000E+00  0.6000E+01
    -35.153  0.0000E+00  0.6000E+01
    -35.122  0.0000E+00  0.6000E+01
    -35.091  0.0000E+00  0.6000E+01
    -35.060  0.0000E+00  0.6000E+01
    -35.029  0.0000E+00  0.6000E+01
    -34.998  0.0000E+00  0.6000E+01
    -34.967  0.0000E+00  0.6000E+01
    -34.936  0.0000E+00  0.6000E+01
    -34.905  0.0000E+00  0.6000E+01
    -34.874  0.0000E+00  0.6000E+01
    -34.843  0.0000E+00  0.6000E+01
    -34.812  0.0000E+00  0.6000E+01
    -34.781  0.0000E+00  0.6000E+01
    -34.750  0.0000E+00  0.6000E+01
    -34.719  0.0000E+00  0.6000E+01
    -34.688  0.0000E+00  0.6000E+01
    -34.657  0.0000E+00  0.6000E+01
    -34.626  0.0000E+00  0.6000E+01
    -34.595  0.0000E+00  0.6000E+01
    -34.564  0.0000E+00  0.6000E+01
    -34.533  0.0000E+00  0.6000E+01
    -34.502  0.0000E+00  0.6000E+01
    -34.471  0.0000E+00  0.6000E+01
    -34.440  0.0000E+00  0.6000E+01
    -34.409  0.0000E+00  0.6000E+01
    -34.378  0.0000E+00  0.6000E+01
    -34.347  0.0000E+00  0.6000E+01
    -34.316  0.0000E+00  0.6000E+01
    -34.285  0.0000E+00  0.6000E+01
    -34.254  0.0000E+00  0.6000E+01
    -34.223  0.0000E+00  0.6000E+01
    -34.192  0.0000E+00  0.6000E+01
    -34.161  0.0000E+00  0.6000E+01
    -34.130  0.0000E+00  0.6000E+01
    -34.100  0.0000E+00  0.6000E+01
    -34.069  0.0000E+00  0.6000E+01
    -34.038  0.0000E+00  0.6000E+01
    -34.007  0.0000E+00  0.6000E+01
    -33.976  0.0000E+00  0.6000E+01
    -33.945  0.0000E+00  0.6000E+01
    -33.914  0.0000E+00  0.6000E+01
    -33.883  0.0000E+00  0.6000E+01
    -33.852  0.0000E+00  0.6000E+01
    -33.821  0.0000E+00  0.6000E+01
    -33.790  0.0000E+00  0.6000E+01
    -33.759  0.0000E+00  0.6000E+01
    -33.728  0.0000E+00  0.6000E+01
    -33.697  0.0000E+00  0.6000E+01
    -33.666  0.0000E+00  0.6000E+01
    -33.635  0.0000E+00  0.6000E+01
    -33.604  0.0000E+00  0.6000E+01
    -33.573  0.0000E+00  0.6000E+01
    -33.542  0.0000E+00  0.6000E+01
    -33.511  0.0000E+00  0.6000E+01
    -33.480  0.0000E+00  0.6000E+01
    -33.449  0.0000E+00  0.6000E+01
    -33.418  0.0000E+00  0.6000E+01
    -33.387  0.0000E+00  0.6000E+01
    -33.356  0.0000E+00  0.6000E+01
    -33.325  0.0000E+00  0.6000E+01
    -33.294  0.0000E+00  0.6000E+01
    -33.263  0.0000E+00  0.6000E+01
    -33.232  0.0000E+00  0.6000E+01
    -33.201  0.0000E+00  0.6000E+01
    -33.170  0.0000E+00  0.6000E+01
    -33.139  0.0000E+00  0.6000E+01
    -33.108  0.0000E+00  0.6000E+01
    -33.077  0.0000E+00  0.6000E+01
    -33.046  0.0000E+00  0.6000E+01
    -33.015  0.0000E+00  0.6000E+01
    -32.984  0.0000E+00  0.6000E+01
    -32.953  0.0000E+00  0.6000E+01
    -32.922  0.0000E+00  0.6000E+01
    -32.891  0.0000E+00  0.6000E+01
    -32.861  0.0000E+00  0.6000E+01
    -32.830  0.0000E+00  0.6000E+01
    -32.799  0.0000E+00  0.6000E+01
    -32.768  0.0000E+00  0.6000E+01
    -32.737  0.0000E+00  0.6000E+01
    -32.706  0.0000E+00  0.6000E+01
    -32.675  0.0000E+00  0.6000E+01
    -32.644  0.0000E+00  0.6000E+01
    -32.613  0.0000E+00  0.6000E+01
    -32.582  0.0000E+00  0.6000E+01
    -32.551  0.0000E+00  0.6000E+01
    -32.520  0.0000E+00  0.6000E+01
    -32.489  0.0000E+00  0.6000E+01
    -32.458  0.0000E+00  0.6000E+01
    -32.427  0.0000E+00  0.6000E+01
    -32.396  0.0000E+00  0.6000E+01
    -32.365  0.0000E+00  0.6000E+01
    -32.334  0.0000E+00  0.6000E+01
    -32.303  0.0000E+00  0.6000E+01
    -32.272  0.0000E+00  0.6000E+01
    -32.241  0.0000E+00  0.6000E+01
    -32.210  0.0000E+00  0.6000E+01
    -32.179  0.0000E+00  0.6000E+01
    -32.148  0.0000E+00  0.6000E+01
    -32.117  0.0000E+00  0.6000E+01
    -32.086  0.0000E+00  0.6000E+01
    -32.055  0.0000E+00  0.6000E+01
    -32.024  0.0000E+00  0.6000E+01
    -31.993  0.0000E+00  0.6000E+01
    -31.962  0.0000E+00  0.6000E+01
    -31.931  0.0000E+00  0.6000E+01
    -31.900  0.0000E+00  0.6000E+01
    -31.869  0.0000E+00  0.6000E+01
    -31.838  0.0000E+00  0.6000E+01
    -31.807  0.0000E+00  0.6000E+01
    -31.776  0.0000E+00  0.6000E+01
    -31.745  0.0000E+00  0.6000E+01
    -31.714  0.0000E+00  0.6000E+01
    -31.683  0.0000E+00  0.6000E+01
    -31.652  0.0000E+00  0.6000E+01
    -31.621  0.0000E+00  0.6000E+01
    -31.591  0.0000E+00  0.6000E+01
    -31.560  0.0000E+00  0.6000E+01
    -31.529  0.0000E+00  0.6000E+01
    -31.498  0.0000E+00  0.6000E+01
    -31.467  0.0000E+00  0.6000E+01
    -31.436  0.0000E+00  0.6000E+01
    -31.405  0.0000E+00  0.6000E+01
    -31.374  0.0000E+00  0.6000E+01
    -31.343  0.0000E+00  0.6000E+01
    -31.312  0.0000E+00  0.6000E+01
    -31.281  0.0000E+00  0.6000E+01
    -31.250  0.0000E+00  0.6000E+01
    -31.219  0.0000E+00  0.6000E+01
    -31.188  0.0000E+00  0.6000E+01
    -31.157  0.0000E+00  0.6000E+01
    -31.126  0.0000E+00  0.6000E+01
    -31.095  0.0000E+00  0.6000E+01
    -31.064  0.0000E+00  0.6000E+01
    -31.033  0.0000E+00  0.6000E+01
    -31.002  0.0000E+00  0.6000E+01
    -30.971  0.0000E+00  0.6000E+01
    -30.940  0.0000E+00  0.6000E+01
    -30.909  0.0000E+00  0.6000E+01
    -30.878  0.0000E+00  0.6000E+01
    -30.847  0.0000E+00  0.6000E+01
    -30.816  0.0000E+00  0.6000E+01
    -30.785  0.0000E+00  0.6000E+01
    -30.754  0.0000E+00  0.6000E+01
    -30.723  0.0000E+00  0.6000E+01
    -30.692  0.0000E+00  0.6000E+01
    -30.661  0.0000E+00  0.6000E+01
    -30.630  0.0000E+00  0.6000E+01
    -30.599  0.0000E+00  0.6000E+01
    -30.568  0.0000E+00  0.6000E+01
    -30.537  0.0000E+00  0.6000E+01
    -30.506  0.0000E+00  0.6000E+01
    -30.475  0.0000E+00  0.6000E+01
    -30.444  0.0000E+00  0.6000E+01
    -30.413  0.0000E+00  0.6000E+01
    -30.382  0.0000E+00  0.6000E+01
    -30.352  0.0000E+00  0.6000E+01
    -30.321  0.0000E+00  0.6000E+01
    -30.290  0.0000E+00  0.6000E+01
    -30.259  0.0000E+00  0.6000E+01
    -30.228  0.0000E+00  0.6000E+01
    -30.197  0.0000E+00  0.6000E+01
    -30.166  0.0000E+00  0.6000E+01
    -30.135  0.0000E+00  0.6000E+01
    -30.104  0.0000E+00  0.6000E+01
    -30.073  0.0000E+00  0.6000E+01
    -30.042  0.0000E+00  0.6000E+01
    -30.011  0.0000E+00  0.6000E+01
    -29.980  0.0000E+00  0.6000E+01
    -29.949  0.0000E+00  0.6000E+01
    -29.918  0.0000E+00  0.6000E+01
    -29.887  0.0000E+00  0.6000E+01
    -29.856  0.0000E+00  0.6000E+01
    -29.825  0.0000E+00  0.6000E+01
    -29.794  0.0000E+00  0.6000E+01
    -29.763  0.0000E+00  0.6000E+01
    -29.732  0.0000E+00  0.6000E+01
    -29.701  0.0000E+00  0.6000E+01
    -29.670  0.0000E+00  0.6000E+01
    -29.639  0.0000E+00  0.6000E+01
    -29.608  0.0000E+00  0.6000E+01
    -29.577  0.0000E+00  0.6000E+01
    -29.546  0.0000E+00  0.6000E+01
    -29.515  0.0000E+00  0.6000E+01
    -29.484  0.0000E+00  0.6000E+01
    -29.453  0.0000E+00  0.6000E+01
    -29.422  0.0000E+00  0.6000E+01
    -29.391  0.0000E+00  0.6000E+01
    -29.360  0.0000E+00  0.6000E+01
    -29.329  0.0000E+00  0.6000E+01
    -29.298  0.0000E+00  0.6000E+01
    -29.267  0.0000E+00  0.6000E+01
    -29.236  0.0000E+00  0.6000E+01
    -29.205  0.0000E+00  0.6000E+01
    -29.174  0.0000E+00  0.6000E+01
    -29.143  0.0000E+00  0.6000E+01
    -29.112  0.0000E+00  0.6000E+01
    -29.082  0.0000E+00  0.6000E+01
    -29.051  0.0000E+00  0.6000E+01
    -29.020  0.0000E+00  0.6000E+01
    -28.989  0.0000E+00  0.6000E+01
    -28.958  0.0000E+00  0.6000E+01
    -28.927  0.0000E+00  0.6000E+01
    -28.896  0.0000E+00  0.6000E+01
    -28.865  0.0000E+00  0.6000E+01
    -28.834  0.0000E+00  0.6000E+01
    -28.803  0.0000E+00  0.6000E+01
    -28.772  0.0000E+00  0.6000E+01
    -28.741  0.0000E+00  0.6000E+01
    -28.710  0.0000E+00  0.6000E+01
    -28.679  0.0000E+00  0.6000E+01
    -28.648  0.0000E+00  0.6000E+01
    -28.617  0.0000E+00  0.6000E+01
    -28.586  0.0000E+00  0.6000E+01
    -28.555  0.0000E+00  0.6000E+01
    -28.524  0.0000E+00  0.6000E+01
    -28.493  0.0000E+00  0.6000E+01
    -28.462  0.0000E+00  0.6000E+01
    -28.431  0.0000E+00  0.6000E+01
    -28.400  0.0000E+00  0.6000E+01
    -28.369  0.0000E+00  0.6000E+01
    -28.338  0.0000E+00  0.6000E+01
    -28.307  0.0000E+00  0.6000E+01
    -28.276  0.0000E+00  0.6000E+01
    -28.245  0.0000E+00  0.6000E+01
    -28.214  0.0000E+00  0.6000E+01
    -28.183  0.0000E+00  0.6000E+01
    -28.152  0.0000E+00  0.6000E+01
    -28.121  0.0000E+00  0.6000E+01
    -28.090  0.0000E+00  0.6000E+01
    -28.059  0.0000E+00  0.6000E+01
    -28.028  0.0000E+00  0.6000E+01
    -27.997  0.0000E+00  0.6000E+01
    -27.966  0.0000E+00  0.6000E+01
    -27.935  0.0000E+00  0.6000E+01
    -27.904  0.0000E+00  0.6000E+01
    -27.873  0.0000E+00  0.6000E+01
    -27.843  0.0000E+00  0.6000E+01
    -27.812  0.0000E+00  0.6000E+01
    -27.781  0.0000E+00  0.6000E+01
    -27.750  0.0000E+00  0.6000E+01
    -27.719  0.0000E+00  0.6000E+01
    -27.688  0.0000E+00  0.6000E+01
    -27.657  0.0000E+00  0.6000E+01
    -27.626  0.0000E+00  0.6000E+01
    -27.595  0.0000E+00  0.6000E+01
    -27.564  0.0000E+00  0.6000E+01
    -27.533  0.0000E+00  0.6000E+01
    -27.502  0.0000E+00  0.6000E+01
    -27.471  0.0000E+00  0.6000E+01
    -27.440  0.0000E+00  0.6000E+01
    -27.409  0.0000E+00  0.6000E+01
    -27.378  0.0000E+00  0.6000E+01
    -27.347  0.0000E+00  0.6000E+01
    -27.316  0.0000E+00  0.6000E+01
    -27.285  0.0000E+00  0.6000E+01
    -27.254  0.0000E+00  0.6000E+01
    -27.223  0.0000E+00  0.6000E+01
    -27.192  0.0000E+00  0.6000E+01
    -27.161  0.0000E+00  0.6000E+01
    -27.130  0.0000E+00  0.6000E+01
    -27.099  0.0000E+00  0.6000E+01
    -27.068  0.0000E+00  0.6000E+01
    -27.037  0.0000E+00  0.6000E+01
    -27.006  0.0000E+00  0.6000E+01
    -26.975  0.0000E+00  0.6000E+01
    -26.944  0.0000E+00  0.6000E+01
    -26.913  0.0000E+00  0.6000E+01
    -26.882  0.0000E+00  0.6000E+01
    -26.851  0.0000E+00  0.6000E+01
    -26.820  0.0000E+00  0.6000E+01
    -26.789  0.0000E+00  0.6000E+01
    -26.758  0.0000E+00  0.6000E+01
    -26.727  0.0000E+00  0.6000E+01
    -26.696  0.0000E+00  0.6000E+01
    -26.665  0.0000E+00  0.6000E+01
    -26.634  0.0000E+00  0.6000E+01
    -26.603  0.0000E+00  0.6000E+01
    -26.573  0.0000E+00  0.6000E+01
    -26.542  0.0000E+00  0.6000E+01
    -26.511  0.0000E+00  0.6000E+01
    -26.480  0.0000E+00  0.6000E+01
    -26.449  0.0000E+00  0.6000E+01
    -26.418  0.0000E+00  0.6000E+01
    -26.387  0.0000E+00  0.6000E+01
    -26.356  0.0000E+00  0.6000E+01
    -26.325  0.0000E+00  0.6000E+01
    -26.294  0.0000E+00  0.6000E+01
    -26.263  0.0000E+00  0.6000E+01
    -26.232  0.0000E+00  0.6000E+01
    -26.201  0.0000E+00  0.6000E+01
    -26.170  0.0000E+00  0.6000E+01
    -26.139  0.0000E+00  0.6000E+01
    -26.108  0.0000E+00  0.6000E+01
    -26.077  0.0000E+00  0.6000E+01
    -26.046  0.0000E+00  0.6000E+01
    -26.015  0.0000E+00  0.6000E+01
    -25.984  0.0000E+00  0.6000E+01
    -25.953  0.0000E+00  0.6000E+01
    -25.922  0.0000E+00  0.6000E+01
    -25.891  0.0000E+00  0.6000E+01
    -25.860  0.0000E+00  0.6000E+01
    -25.829  0.0000E+00  0.6000E+01
    -25.798  0.0000E+00  0.6000E+01
    -25.767  0.0000E+00  0.6000E+01
    -25.736  0.0000E+00  0.6000E+01
    -25.705  0.0000E+00  0.6000E+01
    -25.674  0.0000E+00  0.6000E+01
    -25.643  0.0000E+00  0.6000E+01
    -25.612  0.0000E+00  0.6000E+01
    -25.581  0.0000E+00  0.6000E+01
    -25.550  0.0000E+00  0.6000E+01
    -25.519  0.0000E+00  0.6000E+01
    -25.488  0.0000E+00  0.6000E+01
    -25.457  0.0000E+00  0.6000E+01
    -25.426  0.0000E+00  0.6000E+01
    -25.395  0.0000E+00  0.6000E+01
    -25.364  0.0000E+00  0.6000E+01
    -25.334  0.0000E+00  0.6000E+01
    -25.303  0.0000E+00  0.6000E+01
    -25.272  0.0000E+00  0.6000E+01
    -25.241  0.0000E+00  0.6000E+01
    -25.210  0.0000E+00  0.6000E+01
    -25.179  0.0000E+00  0.6000E+01
    -25.148  0.0000E+00  0.6000E+01
    -25.117  0.0000E+00  0.6000E+01
    -25.086  0.0000E+00  0.6000E+01
    -25.055  0.0000E+00  0.6000E+01
    -25.024  0.0000E+00  0.6000E+01
    -24.993  0.0000E+00  0.6000E+01
    -24.962  0.0000E+00  0.6000E+01
    -24.931  0.0000E+00  0.6000E+01
    -24.900  0.0000E+00  0.6000E+01
    -24.869  0.0000E+00  0.6000E+01