    3    3    1    1
  0.1053756E+03  0.3427808E-09  0.3427808E-09  0.3106689E-08  0.5000000E-15
  1.000000000000000E-004
  CAR 
 unknown system                          
     24    625     64
 
  0.0000000E+00  0.0000000E+00  0.0000000E+00  0.1600000E-02
    1      -47.585289   1.000000
    2      -47.251590   1.000000
    3      -46.841016   1.000000
    4      -44.304422   1.000000
    5      -43.954671   1.000000
    6      -43.707490   1.000000
    7      -16.283686   1.000000
    8      -16.192075   1.000000
    9      -15.355797   1.000000
   10      -15.219155   1.000000
   11       -8.067597   1.000000
   12       -7.582541   1.000000
   13       -6.221774   1.000000
   14       -6.179331   1.000000
   15       -6.042125   1.000000
   16       -5.146680   1.000000
   17       -5.081394   1.000000
   18       -5.046235   1.000000
   19       -4.706930   1.000000
   20       -4.656285   1.000000
   21       -3.634404   1.000000
   22       -1.521007   0.000000
   23       -1.367090   0.000000
   24       -1.254532   0.000000
   25       -0.799447   0.000000
   26       -0.345653   0.000000
   27       -0.305788   0.000000
   28       -0.113084   0.000000
   29       -0.043364   0.000000
   30        0.476441   0.000000
   31        0.877504   0.000000
   32        1.012936   0.000000
   33        1.172168   0.000000
   34        1.395559   0.000000
   35        1.943271   0.000000
   36        1.991698   0.000000
   37        2.393190   0.000000
   38        2.531458   0.000000
   39        2.799660   0.000000
   40        2.810381   0.000000
   41        2.821487   0.000000
   42        3.111942   0.000000
   43        3.178909   0.000000
   44        3.491843   0.000000
   45        3.609024   0.000000
   46        3.910053   0.000000
   47        3.941483   0.000000
   48        4.226798   0.000000
   49        4.348314   0.000000
   50        5.199353   0.000000
   51        5.224854   0.000000
   52        5.316414   0.000000
   53        5.435152   0.000000
   54        5.831944   0.000000
   55        5.977216   0.000000
   56        6.021216   0.000000
   57        6.110175   0.000000
   58        6.215618   0.000000
   59        6.298201   0.000000
   60        6.780248   0.000000
   61        6.874404   0.000000
   62        7.187496   0.000000
   63        7.295067   0.000000
   64        7.715784   0.000000
 
  0.4000000E-01  0.0000000E+00  0.3081488E-32  0.1600000E-02
    1      -47.585580   1.000000
    2      -47.251523   1.000000
    3      -46.841336   1.000000
    4      -44.304773   1.000000
    5      -43.954574   1.000000
    6      -43.707877   1.000000
    7      -16.265848   1.000000
    8      -16.173185   1.000000
    9      -15.337741   1.000000
   10      -15.201842   1.000000
   11       -8.046812   1.000000
   12       -7.561483   1.000000
   13       -6.269244   1.000000
   14       -6.185920   1.000000
   15       -6.000150   1.000000
   16       -5.174679   1.000000
   17       -5.095319   1.000000
   18       -5.051168   1.000000
   19       -4.705953   1.000000
   20       -4.657129   1.000000
   21       -3.639325   1.000000
   22       -1.586824   0.000000
   23       -1.518017   0.000000
   24       -1.304537   0.000000
   25       -0.978931   0.000000
   26       -0.307865   0.000000
   27       -0.235296   0.000000
   28       -0.200964   0.000000
   29        0.002091   0.000000
   30        0.362349   0.000000
   31        0.909762   0.000000
   32        1.040258   0.000000
   33        1.118468   0.000000
   34        1.325703   0.000000
   35        1.973172   0.000000
   36        2.020355   0.000000
   37        2.428667   0.000000
   38        2.568163   0.000000
   39        2.816162   0.000000
   40        2.831850   0.000000
   41        2.838898   0.000000
   42        3.151640   0.000000
   43        3.214457   0.000000
   44        3.557691   0.000000
   45        3.672783   0.000000
   46        3.942944   0.000000
   47        3.979430   0.000000
   48        4.278315   0.000000
   49        4.409723   0.000000
   50        5.225964   0.000000
   51        5.253804   0.000000
   52        5.373423   0.000000
   53        5.500728   0.000000
   54        5.825227   0.000000
   55        5.952783   0.000000
   56        6.047758   0.000000
   57        6.117478   0.000000
   58        6.242489   0.000000
   59        6.354310   0.000000
   60        6.798539   0.000000
   61        6.900981   0.000000
   62        7.163454   0.000000
   63        7.296507   0.000000
   64        7.422427   0.000000
 
  0.8000000E-01  0.0000000E+00  0.6162976E-32  0.1600000E-02
    1      -47.586453   1.000000
    2      -47.251324   1.000000
    3      -46.842304   1.000000
    4      -44.305828   1.000000
    5      -43.954299   1.000000
    6      -43.709046   1.000000
    7      -16.213117   1.000000
    8      -16.117272   1.000000
    9      -15.283582   1.000000
   10      -15.149946   1.000000
   11       -7.985135   1.000000
   12       -7.498951   1.000000
   13       -6.393388   1.000000
   14       -6.158928   1.000000
   15       -5.938694   1.000000
   16       -5.274587   1.000000
   17       -5.123771   1.000000
   18       -5.063912   1.000000
   19       -4.707384   1.000000
   20       -4.654092   1.000000
   21       -3.660343   1.000000
   22       -1.947361   0.000000
   23       -1.810742   0.000000
   24       -1.411456   0.000000
   25       -1.284428   0.000000
   26       -0.493653   0.000000
   27       -0.299710   0.000000
   28       -0.088960   0.000000
   29        0.081949   0.000000
   30        0.142129   0.000000
   31        0.954055   0.000000
   32        1.002589   0.000000
   33        1.130843   0.000000
   34        1.209000   0.000000
   35        2.060496   0.000000
   36        2.105065   0.000000
   37        2.526476   0.000000
   38        2.668509   0.000000
   39        2.819317   0.000000
   40        2.907175   0.000000
   41        2.923221   0.000000
   42        3.254938   0.000000
   43        3.311503   0.000000
   44        3.718127   0.000000
   45        3.822327   0.000000
   46        4.040834   0.000000
   47        4.091162   0.000000
   48        4.414339   0.000000
   49        4.569590   0.000000
   50        5.272003   0.000000
   51        5.329746   0.000000
   52        5.403077   0.000000
   53        5.554512   0.000000
   54        5.603955   0.000000
   55        5.831690   0.000000
   56        6.257206   0.000000
   57        6.314583   0.000000
   58        6.502368   0.000000
   59        6.597875   0.000000
   60        6.839186   0.000000
   61        6.899118   0.000000
   62        6.967119   0.000000
   63        7.240861   0.000000
   64        7.329713   0.000000
 
  0.1200000E+00  0.6938894E-17  0.1232595E-31  0.1600000E-02
    1      -47.587849   1.000000
    2      -47.251006   1.000000
    3      -46.843852   1.000000
    4      -44.307523   1.000000
    5      -43.953856   1.000000
    6      -43.710919   1.000000
    7      -16.127908   1.000000
    8      -16.026731   1.000000
    9      -15.193332   1.000000
   10      -15.063540   1.000000
   11       -7.884946   1.000000
   12       -7.397054   1.000000
   13       -6.547309   1.000000
   14       -6.111755   1.000000
   15       -5.889601   1.000000
   16       -5.445151   1.000000
   17       -5.163594   1.000000
   18       -5.087296   1.000000
   19       -4.720349   1.000000
   20       -4.638681   1.000000
   21       -3.715652   1.000000
   22       -2.575043  -0.065090
   23       -2.187876   0.000000
   24       -1.575874   0.000000
   25       -1.541862   0.000000
   26       -0.898298   0.000000
   27       -0.337314   0.000000
   28       -0.060324   0.000000
   29       -0.004050   0.000000
   30        0.128968   0.000000
   31        0.833329   0.000000
   32        1.093640   0.000000
   33        1.149501   0.000000
   34        1.279416   0.000000
   35        2.201655   0.000000
   36        2.243775   0.000000
   37        2.671861   0.000000
   38        2.816051   0.000000
   39        2.821143   0.000000
   40        3.034667   0.000000
   41        3.060757   0.000000
   42        3.405784   0.000000
   43        3.458927   0.000000
   44        3.908095   0.000000
   45        4.005658   0.000000
   46        4.189988   0.000000
   47        4.258985   0.000000
   48        4.542301   0.000000
   49        4.741277   0.000000
   50        5.064569   0.000000
   51        5.281243   0.000000
   52        5.460233   0.000000
   53        5.525589   0.000000
   54        5.628386   0.000000
   55        5.893615   0.000000
   56        6.283902   0.000000
   57        6.688236   0.000000
   58        6.849539   0.000000
   59        6.947336   0.000000
   60        7.001688   0.000000
   61        7.033105   0.000000
   62        7.244835   0.000000
   63        7.428674   0.000000
   64        7.568952   0.000000
 
  0.1600000E+00  0.0000000E+00  0.1232595E-31  0.1600000E-02
    1      -47.589686   1.000000
    2      -47.250588   1.000000
    3      -46.845882   1.000000
    4      -44.309758   1.000000
    5      -43.953275   1.000000
    6      -43.713377   1.000000
    7      -16.014377   1.000000
    8      -15.905765   1.000000
    9      -15.067122   1.000000
   10      -14.942763   1.000000
   11       -7.751400   1.000000
   12       -7.260288   1.000000
   13       -6.717468   1.000000
   14       -6.051652   1.000000
   15       -5.860443   1.000000
   16       -5.668210   1.000000
   17       -5.212983   1.000000
   18       -5.139981   1.000000
   19       -4.744906   1.000000
   20       -4.618446   1.000000
   21       -3.832841   1.000000
   22       -3.293948   0.957533
   23       -2.654760  -0.052364
   24       -1.847818   0.000000
   25       -1.706456   0.000000
   26       -1.262658   0.000000
   27       -0.408028   0.000000
   28       -0.230587   0.000000
   29       -0.126585   0.000000
   30        0.225569   0.000000
   31        0.846085   0.000000
   32        1.027059   0.000000
   33        1.344233   0.000000
   34        1.466950   0.000000
   35        2.394895   0.000000
   36        2.435420   0.000000
   37        2.814535   0.000000
   38        2.860418   0.000000
   39        2.999440   0.000000
   40        3.208735   0.000000
   41        3.248092   0.000000
   42        3.599221   0.000000
   43        3.652001   0.000000
   44        4.069484   0.000000
   45        4.211216   0.000000
   46        4.281897   0.000000
   47        4.421679   0.000000
   48        4.476652   0.000000
   49        4.660551   0.000000
   50        5.087119   0.000000
   51        5.324591   0.000000
   52        5.423738   0.000000
   53        5.622731   0.000000
   54        5.698897   0.000000
   55        5.931287   0.000000
   56        6.093917   0.000000
   57        6.432546   0.000000
   58        6.857670   0.000000
   59        6.944055   0.000000
   60        7.076972   0.000000
   61        7.331777   0.000000
   62        7.362913   0.000000
   63        7.478291   0.000000
   64        7.682616   0.000000
 
  0.2000000E+00  0.0000000E+00  0.1232595E-31  0.1600000E-02
    1      -47.591852   1.000000
    2      -47.250105   1.000000
    3      -46.848268   1.000000
    4      -44.312399   1.000000
    5      -43.952605   1.000000
    6      -43.716264   1.000000
    7      -15.878475   1.000000
    8      -15.760580   1.000000
    9      -14.905421   1.000000
   10      -14.787880   1.000000
   11       -7.596349   1.000000
   12       -7.099254   1.000000
   13       -6.889803   1.000000
   14       -5.987796   1.000000
   15       -5.928276   1.000000
   16       -5.858994   1.000000
   17       -5.290748   1.000000
   18       -5.227095   1.000000
   19       -4.777790   1.000000
   20       -4.622915   1.000000
   21       -4.133828   1.000000
   22       -3.897693   1.000000
   23       -3.122835   0.786607
   24       -2.105211   0.000000
   25       -1.904560   0.000000
   26       -1.505388   0.000000
   27       -0.531512   0.000000
   28       -0.378583   0.000000
   29       -0.258757   0.000000
   30        0.290502   0.000000
   31        0.935953   0.000000
   32        1.008504   0.000000
   33        1.587421   0.000000
   34        1.706467   0.000000
   35        2.639113   0.000000
   36        2.679620   0.000000
   37        2.818049   0.000000
   38        3.058188   0.000000
   39        3.207098   0.000000
   40        3.418014   0.000000
   41        3.478661   0.000000
   42        3.790251   0.000000
   43        3.884139   0.000000
   44        3.918354   0.000000
   45        4.225229   0.000000
   46        4.375104   0.000000
   47        4.485370   0.000000
   48        4.555441   0.000000
   49        4.685641   0.000000
   50        5.025809   0.000000
   51        5.312030   0.000000
   52        5.332736   0.000000
   53        5.582413   0.000000
   54        5.829303   0.000000
   55        6.054662   0.000000
   56        6.187127   0.000000
   57        6.465832   0.000000
   58        6.875070   0.000000
   59        7.036296   0.000000
   60        7.155229   0.000000
   61        7.168923   0.000000
   62        7.525145   0.000000
   63        7.629611   0.000000
   64        7.688195   0.000000
 
  0.2400000E+00 -0.1387779E-16  0.0000000E+00  0.1600000E-02
    1      -47.594202   1.000000
    2      -47.249579   1.000000
    3      -46.850843   1.000000
    4      -44.315265   1.000000
    5      -43.951870   1.000000
    6      -43.719374   1.000000
    7      -15.727863   1.000000
    8      -15.599451   1.000000
    9      -14.709704   1.000000
   10      -14.599771   1.000000
   11       -7.459214   1.000000
   12       -7.046708   1.000000
   13       -6.921889   1.000000
   14       -6.184635   1.000000
   15       -5.952332   1.000000
   16       -5.929715   1.000000
   17       -5.473874   1.000000
   18       -5.260578   1.000000
   19       -4.946218   1.000000
   20       -4.815788   1.000000
   21       -4.504885   1.000000
   22       -4.120743   1.000000
   23       -3.513751   1.000000
   24       -2.344001   0.000000
   25       -2.131017   0.000000
   26       -1.619341   0.000000
   27       -0.695427   0.000000
   28       -0.503954   0.000000
   29       -0.312096   0.000000
   30        0.314308   0.000000
   31        1.026009   0.000000
   32        1.049388   0.000000
   33        1.872874   0.000000
   34        1.995378   0.000000
   35        2.815553   0.000000
   36        2.933080   0.000000
   37        2.975547   0.000000
   38        3.168842   0.000000
   39        3.392128   0.000000
   40        3.496875   0.000000
   41        3.708187   0.000000
   42        3.724824   0.000000
   43        3.951422   0.000000
   44        4.089816   0.000000
   45        4.166945   0.000000
   46        4.366328   0.000000
   47        4.537766   0.000000
   48        4.595983   0.000000
   49        4.757669   0.000000
   50        5.064775   0.000000
   51        5.217483   0.000000
   52        5.404886   0.000000
   53        5.829661   0.000000
   54        5.862630   0.000000
   55        6.155442   0.000000
   56        6.439425   0.000000
   57        6.582399   0.000000
   58        6.988729   0.000000
   59        7.121076   0.000000
   60        7.167096   0.000000
   61        7.670600   0.000000
   62        7.780355   0.000000
   63        7.939860   0.000000
   64        8.187402   0.000000
 
  0.2800000E+00  0.2775558E-16  0.2465190E-31  0.1600000E-02
    1      -47.596593   1.000000
    2      -47.249041   1.000000
    3      -46.853450   1.000000
    4      -44.318183   1.000000
    5      -43.951119   1.000000
    6      -43.722517   1.000000
    7      -15.571581   1.000000
    8      -15.432418   1.000000
    9      -14.483685   1.000000
   10      -14.381125   1.000000
   11       -7.472701   1.000000
   12       -7.051090   1.000000
   13       -6.840873   1.000000
   14       -6.387773   1.000000
   15       -6.219172   1.000000
   16       -5.902175   1.000000
   17       -5.708871   1.000000
   18       -5.489593   1.000000
   19       -5.239253   1.000000
   20       -4.857880   1.000000
   21       -4.552664   1.000000
   22       -4.279038   1.000000
   23       -3.793003   1.000000
   24       -2.558966   0.000000
   25       -2.371350   0.000000
   26       -1.636106   0.000000
   27       -0.842745   0.000000
   28       -0.605363   0.000000
   29       -0.310143   0.000000
   30        0.321791   0.000000
   31        1.069611   0.000000
   32        1.138575   0.000000
   33        2.180279   0.000000
   34        2.321871   0.000000
   35        2.798512   0.000000
   36        2.895297   0.000000
   37        3.261018   0.000000
   38        3.300433   0.000000
   39        3.331090   0.000000
   40        3.455627   0.000000
   41        3.698989   0.000000
   42        3.933242   0.000000
   43        4.060562   0.000000
   44        4.131835   0.000000
   45        4.214842   0.000000
   46        4.510573   0.000000
   47        4.584890   0.000000
   48        4.785535   0.000000
   49        5.058743   0.000000
   50        5.194627   0.000000
   51        5.451922   0.000000
   52        5.524884   0.000000
   53        5.919949   0.000000
   54        5.979589   0.000000
   55        6.104471   0.000000
   56        6.758426   0.000000
   57        6.836258   0.000000
   58        7.033278   0.000000
   59        7.154198   0.000000
   60        7.168265   0.000000
   61        7.308736   0.000000
   62        7.550123   0.000000
   63        8.093449   0.000000
   64        8.231940   0.000000
 
  0.3200000E+00  0.2775558E-16  0.4930381E-31  0.1600000E-02
    1      -47.598880   1.000000
    2      -47.248528   1.000000
    3      -46.855933   1.000000
    4      -44.320977   1.000000
    5      -43.950405   1.000000
    6      -43.725508   1.000000
    7      -15.419451   1.000000
    8      -15.270463   1.000000
    9      -14.235018   1.000000
   10      -14.138340   1.000000
   11       -7.656952   1.000000
   12       -7.052542   1.000000
   13       -6.922039   1.000000
   14       -6.627555   1.000000
   15       -6.527935   1.000000
   16       -5.997463   1.000000
   17       -5.900942   1.000000
   18       -5.587907   1.000000
   19       -5.179367   1.000000
   20       -4.899878   1.000000
   21       -4.601743   1.000000
   22       -4.424079   1.000000
   23       -3.958001   1.000000
   24       -2.745450   0.000000
   25       -2.609064   0.000000
   26       -1.594319   0.000000
   27       -0.950626   0.000000
   28       -0.687671   0.000000
   29       -0.263153   0.000000
   30        0.332416   0.000000
   31        1.106239   0.000000
   32        1.188792   0.000000
   33        2.271004   0.000000
   34        2.599788   0.000000
   35        2.674802   0.000000
   36        2.827809   0.000000
   37        3.037505   0.000000
   38        3.233577   0.000000
   39        3.440493   0.000000
   40        3.685098   0.000000
   41        3.747866   0.000000
   42        4.107512   0.000000
   43        4.226067   0.000000
   44        4.370241   0.000000
   45        4.520726   0.000000
   46        4.740448   0.000000
   47        4.946821   0.000000
   48        5.021193   0.000000
   49        5.226683   0.000000
   50        5.352370   0.000000
   51        5.614103   0.000000
   52        5.833917   0.000000
   53        5.968612   0.000000
   54        6.105492   0.000000
   55        6.282489   0.000000
   56        6.867697   0.000000
   57        7.170953   0.000000
   58        7.217124   0.000000
   59        7.370386   0.000000
   60        7.426765   0.000000
   61        7.536186   0.000000
   62        8.112482   0.000000
   63        8.239865   0.000000
   64        8.711199   0.000000
 
  0.3600000E+00  0.0000000E+00  0.2465190E-31  0.1600000E-02
    1      -47.600911   1.000000
    2      -47.248074   1.000000
    3      -46.858126   1.000000
    4      -44.323459   1.000000
    5      -43.949770   1.000000
    6      -43.728144   1.000000
    7      -15.281447   1.000000
    8      -15.124473   1.000000
    9      -13.977642   1.000000
   10      -13.884335   1.000000
   11       -7.926565   1.000000
   12       -7.371543   1.000000
   13       -7.151793   1.000000
   14       -6.958549   1.000000
   15       -6.591245   1.000000
   16       -5.924997   1.000000
   17       -5.875941   1.000000
   18       -5.583330   1.000000
   19       -5.087701   1.000000
   20       -4.938758   1.000000
   21       -4.675655   1.000000
   22       -4.549262   1.000000
   23       -4.049522   1.000000
   24       -2.899612  -0.100299
   25       -2.829988   0.000000
   26       -1.525880   0.000000
   27       -1.021417   0.000000
   28       -0.753496   0.000000
   29       -0.174183   0.000000
   30        0.352457   0.000000
   31        1.128019   0.000000
   32        1.168033   0.000000
   33        1.899633   0.000000
   34        2.467632   0.000000
   35        2.810210   0.000000
   36        2.852543   0.000000
   37        3.055356   0.000000
   38        3.173608   0.000000
   39        3.374706   0.000000
   40        4.010454   0.000000
   41        4.176524   0.000000
   42        4.284259   0.000000
   43        4.423981   0.000000
   44        4.587726   0.000000
   45        4.895753   0.000000
   46        4.900601   0.000000
   47        5.323911   0.000000
   48        5.348511   0.000000
   49        5.483240   0.000000
   50        5.523739   0.000000
   51        5.666288   0.000000
   52        6.233885   0.000000
   53        6.289028   0.000000
   54        6.443957   0.000000
   55        6.568753   0.000000
   56        6.707804   0.000000
   57        7.188415   0.000000
   58        7.513445   0.000000
   59        7.549035   0.000000
   60        7.574487   0.000000
   61        7.711878   0.000000
   62        7.912633   0.000000
   63        7.918959   0.000000
   64        7.852434   0.000000
 
  0.4000000E+00  0.0000000E+00 -0.2465190E-31  0.1600000E-02
    1      -47.602558   1.000000
    2      -47.247704   1.000000
    3      -46.859897   1.000000
    4      -44.325472   1.000000
    5      -43.949254   1.000000
    6      -43.730270   1.000000
    7      -15.167211   1.000000
    8      -15.004490   1.000000
    9      -13.734250   1.000000
   10      -13.641472   1.000000
   11       -8.247898   1.000000
   12       -7.802277   1.000000
   13       -7.397728   1.000000
   14       -7.201126   1.000000
   15       -6.504773   1.000000
   16       -5.948779   1.000000
   17       -5.661978   1.000000
   18       -5.537700   1.000000
   19       -4.989753   1.000000
   20       -4.968349   1.000000
   21       -4.755738   1.000000
   22       -4.640828   1.000000
   23       -4.120410   1.000000
   24       -3.021674   0.797451
   25       -3.017101   0.504700
   26       -1.455683   0.000000
   27       -1.065249   0.000000
   28       -0.803524   0.000000
   29       -0.052842   0.000000
   30        0.378981   0.000000
   31        1.052428   0.000000
   32        1.143221   0.000000
   33        1.547935   0.000000
   34        2.228338   0.000000
   35        2.757135   0.000000
   36        2.821921   0.000000
   37        2.924344   0.000000
   38        3.409197   0.000000
   39        3.746269   0.000000
   40        4.091977   0.000000
   41        4.428854   0.000000
   42        4.486415   0.000000
   43        4.701504   0.000000
   44        4.788839   0.000000
   45        5.182748   0.000000
   46        5.304399   0.000000
   47        5.537392   0.000000
   48        5.744509   0.000000
   49        5.825116   0.000000
   50        5.963396   0.000000
   51        6.043484   0.000000
   52        6.570698   0.000000
   53        6.694932   0.000000
   54        6.726919   0.000000
   55        6.830963   0.000000
   56        6.972393   0.000000
   57        7.034686   0.000000
   58        7.077857   0.000000
   59        7.149316   0.000000
   60        7.168899   0.000000
   61        7.910344   0.000000
   62        7.985714   0.000000
   63        8.004193   0.000000
   64        8.064435   0.000000
 
  0.4400000E+00  0.0000000E+00  0.0000000E+00  0.1600000E-02
    1      -47.603717   1.000000
    2      -47.247444   1.000000
    3      -46.861142   1.000000
    4      -44.326892   1.000000
    5      -43.948894   1.000000
    6      -43.731763   1.000000
    7      -15.085350   1.000000
    8      -14.919056   1.000000
    9      -13.537391   1.000000
   10      -13.443029   1.000000
   11       -8.538656   1.000000
   12       -8.162730   1.000000
   13       -7.543486   1.000000
   14       -7.354294   1.000000
   15       -6.451108   1.000000
   16       -5.970989   1.000000
   17       -5.493188   1.000000
   18       -5.428459   1.000000
   19       -4.996095   1.000000
   20       -4.900333   1.000000
   21       -4.840312   1.000000
   22       -4.681797   1.000000
   23       -4.193519   1.000000
   24       -3.164734   1.001105
   25       -3.098890   1.002946
   26       -1.401637   0.000000
   27       -1.091043   0.000000
   28       -0.837392   0.000000
   29        0.077339   0.000000
   30        0.404508   0.000000
   31        0.898459   0.000000
   32        1.141885   0.000000
   33        1.300229   0.000000
   34        2.068684   0.000000
   35        2.661046   0.000000
   36        2.818236   0.000000
   37        2.820368   0.000000
   38        3.565914   0.000000
   39        4.052069   0.000000
   40        4.155818   0.000000
   41        4.399934   0.000000
   42        4.687256   0.000000
   43        5.081449   0.000000
   44        5.313013   0.000000
   45        5.414827   0.000000
   46        5.808835   0.000000
   47        5.946900   0.000000
   48        6.216596   0.000000
   49        6.278738   0.000000
   50        6.358398   0.000000
   51        6.475719   0.000000
   52        6.512525   0.000000
   53        6.528586   0.000000
   54        6.576784   0.000000
   55        6.923519   0.000000
   56        7.148329   0.000000
   57        7.198194   0.000000
   58        7.234175   0.000000
   59        7.276480   0.000000
   60        7.335108   0.000000
   61        7.401528   0.000000
   62        7.449060   0.000000
   63        7.694013   0.000000
   64        7.803320   0.000000
 
  0.4800000E+00  0.0000000E+00 -0.4930381E-31  0.1600000E-02
    1      -47.604315   1.000000
    2      -47.247309   1.000000
    3      -46.861781   1.000000
    4      -44.327622   1.000000
    5      -43.948702   1.000000
    6      -43.732528   1.000000
    7      -15.042563   1.000000
    8      -14.874590   1.000000
    9      -13.424951   1.000000
   10      -13.328800   1.000000
   11       -8.709778   1.000000
   12       -8.362870   1.000000
   13       -7.610914   1.000000
   14       -7.430965   1.000000
   15       -6.431656   1.000000
   16       -5.983461   1.000000
   17       -5.447197   1.000000
   18       -5.263680   1.000000
   19       -5.007799   1.000000
   20       -4.948282   1.000000
   21       -4.839740   1.000000
   22       -4.673082   1.000000
   23       -4.252883   1.000000
   24       -3.244011   1.000000
   25       -3.139803   1.000000
   26       -1.373286   0.000000
   27       -1.103344   0.000000
   28       -0.854503   0.000000
   29        0.171942   0.000000
   30        0.420614   0.000000
   31        0.783670   0.000000
   32        1.128751   0.000000
   33        1.184600   0.000000
   34        1.984996   0.000000
   35        2.610258   0.000000
   36        2.772806   0.000000
   37        2.820216   0.000000
   38        3.598906   0.000000
   39        3.999298   0.000000
   40        4.245698   0.000000
   41        4.560579   0.000000
   42        5.127470   0.000000
   43        5.282040   0.000000
   44        5.713488   0.000000
   45        5.840552   0.000000
   46        5.921206   0.000000
   47        6.035489   0.000000
   48        6.347739   0.000000
   49        6.424930   0.000000
   50        6.493524   0.000000
   51        6.588510   0.000000
   52        6.641379   0.000000
   53        6.770789   0.000000
   54        6.806071   0.000000
   55        6.865888   0.000000
   56        7.016845   0.000000
   57        7.092560   0.000000
   58        7.162801   0.000000
   59        7.222728   0.000000
   60        7.440663   0.000000
   61        7.482966   0.000000
   62        7.742058   0.000000
   63        7.805945   0.000000
   64        7.838265   0.000000
 
 -0.4800000E+00  0.0000000E+00  0.4930381E-31  0.1600000E-02
    1      -47.604315   1.000000
    2      -47.247309   1.000000
    3      -46.861781   1.000000
    4      -44.327622   1.000000
    5      -43.948702   1.000000
    6      -43.732528   1.000000
    7      -15.042563   1.000000
    8      -14.874590   1.000000
    9      -13.424951   1.000000
   10      -13.328799   1.000000
   11       -8.709778   1.000000
   12       -8.362870   1.000000
   13       -7.610915   1.000000
   14       -7.430964   1.000000
   15       -6.431656   1.000000
   16       -5.983461   1.000000
   17       -5.447197   1.000000
   18       -5.263679   1.000000
   19       -5.007797   1.000000
   20       -4.948284   1.000000
   21       -4.839739   1.000000
   22       -4.673083   1.000000
   23       -4.252883   1.000000
   24       -3.244011   1.000000
   25       -3.139802   1.000000
   26       -1.373287   0.000000
   27       -1.103344   0.000000
   28       -0.854502   0.000000
   29        0.171940   0.000000
   30        0.420616   0.000000
   31        0.783669   0.000000
   32        1.128752   0.000000
   33        1.184599   0.000000
   34        1.984993   0.000000
   35        2.610258   0.000000
   36        2.772804   0.000000
   37        2.820169   0.000000
   38        3.598905   0.000000
   39        3.999298   0.000000
   40        4.245630   0.000000
   41        4.560560   0.000000
   42        5.127478   0.000000
   43        5.282017   0.000000
   44        5.713479   0.000000