 vasp.6.2.1 16May21 (build May 20 2021 13:04:43) complex                        
  
 executed on             LinuxIFC date 2023.12.25  18:11:08
 running on   64 total cores
 distrk:  each k-point on   64 cores,    1 groups
 distr:  one band on NCORE=   8 cores,    8 groups


--------------------------------------------------------------------------------------------------------


 INCAR:
   ENCUT = 330
   EDIFF = 1E-7
   LORBIT = 12
   LREAL = .False.
   ICHARG = 11
   NELM = 200
   NELMIN = 6
   NELMDL = -7
   PREC = Accurate
   ALGO = Fast
   NBANDS = 64
   NSW = 0
   IBRION = -1
   ISIF = 3
   EDIFFG = -0.001
   VOSKOWN = 1
   LASPH = True
   IVDW = 12
   ISMEAR = -5
   SIGMA = 0.05
   NEDOS = 2001
   ISPIN = 2
   MAGMOM = 0.0 0.0 5.0 -0.0 -0.0 -0.6 -0.0 -0.0 -0.6
   ISYM = -1
   LSORBIT = .TRUE.
   SAXIS = 0 0 1
   EFIELD = 0.00
   IDIPOL = 3
   LDIPOL = .TRUE.
   LVHAR = .TRUE.
   AMIX = 0.2
   BMIX = 0.00001
   AMIX_MAG = 0.8
   BMIX_MAG = 0.00001
   LDAU = .TRUE.
   LDAUTYPE = 2
   LDAUL = 2 -1 -1
   LDAUU = 3.0 0.00 0.00
   LDAUJ = 0.00 0.00 0.00
   LDAUPRINT = 2
   LMAXMIX = 4
   LWAVE = .TRUE.
   NCORE = 8

 POTCAR:    PAW_PBE Cr_pv 02Aug2007               
 POTCAR:    PAW_PBE S 06Sep2000                   
 POTCAR:    PAW_PBE Te 08Apr2002                  
 POTCAR:    PAW_PBE Cr_pv 02Aug2007               
   VRHFIN =Cr : p6d5s1                                                                              
   LEXCH  = PE                                                                                      
   EATOM  =  1647.9177 eV,  121.1185 Ry                                                             
                                                                                                    
   TITEL  = PAW_PBE Cr_pv 02Aug2007                                                                 
   LULTRA =        F    use ultrasoft PP ?                                                          
   IUNSCR =        1    unscreen: 0-lin 1-nonlin 2-no                                               
   RPACOR =    2.080    partial core radius                                                         
   POMASS =   51.996; ZVAL   =   12.000    mass and valenz                                          
   RCORE  =    2.300    outmost cutoff radius                                                       
   RWIGS  =    2.500; RWIGS  =    1.323    wigner-seitz radius (au A)                               
   ENMAX  =  265.681; ENMIN  =  199.261 eV                                                          
   ICORE  =        3    local potential                                                             
   LCOR   =        T    correct aug charges                                                         
   LPAW   =        T    paw PP                                                                      
   EAUG   =  519.424                                                                                
   DEXC   =    0.000                                                                                
   RMAX   =    2.356    core radius for proj-oper                                                   
   RAUG   =    1.300    factor for augmentation sphere                                              
   RDEP   =    2.447    radius for radial grids                                                     
   RDEPT  =    1.882    core radius for aug-charge                                                  
                                                                                                    
   Atomic configuration                                                                             
    8 entries                                                                                       
     n  l   j            E        occ.                                                              
     1  0  0.50     -5880.4963   2.0000                                                             
     2  0  0.50      -667.0865   2.0000                                                             
     2  1  1.50      -560.6250   6.0000                                                             
     3  0  0.50       -73.9860   2.0000                                                             
     3  1  1.50       -45.4378   6.0000                                                             
     3  2  2.50        -2.9137   5.0000                                                             
     4  0  0.50        -4.0071   1.0000                                                             
     4  3  2.50        -1.3606   0.0000                                                             
   Description                                                                                      
     l       E           TYP  RCUT    TYP  RCUT                                                     
     1    -45.4377911     23  2.000                                                                 
     1      1.3605826     23  2.000                                                                 
     2     -2.9136672     23  2.300                                                                 
     2     -4.2742498     23  2.300                                                                 
     0     -4.0071320     23  2.300                                                                 
     0      9.4498803     23  2.300                                                                 
     3      2.7211652     23  2.300                                                                 
  local pseudopotential read in
  partial core-charges read in
  partial kinetic energy density read in
  atomic valenz-charges read in
  non local Contribution for L=           1  read in
    real space projection operators read in
  non local Contribution for L=           1  read in
    real space projection operators read in
  non local Contribution for L=           2  read in
    real space projection operators read in
  non local Contribution for L=           2  read in
    real space projection operators read in
  non local Contribution for L=           0  read in
    real space projection operators read in
  non local Contribution for L=           0  read in
    real space projection operators read in
    PAW grid and wavefunctions read in
 
   number of l-projection  operators is LMAX  =           6
   number of lm-projection operators is LMMAX =          18
 
 POTCAR:    PAW_PBE S 06Sep2000                   
   VRHFIN =S : s2p4                                                                                 
   LEXCH  = PE                                                                                      
   EATOM  =   276.8230 eV,   20.3459 Ry                                                             
                                                                                                    
   TITEL  = PAW_PBE S 06Sep2000                                                                     
   LULTRA =        F    use ultrasoft PP ?                                                          
   IUNSCR =        1    unscreen: 0-lin 1-nonlin 2-no                                               
   RPACOR =    1.500    partial core radius                                                         
   POMASS =   32.066; ZVAL   =    6.000    mass and valenz                                          
   RCORE  =    1.900    outmost cutoff radius                                                       
   RWIGS  =    2.200; RWIGS  =    1.164    wigner-seitz radius (au A)                               
   ENMAX  =  258.689; ENMIN  =  194.016 eV                                                          
   ICORE  =        2    local potential                                                             
   LCOR   =        T    correct aug charges                                                         
   LPAW   =        T    paw PP                                                                      
   EAUG   =  335.092                                                                                
   DEXC   =    0.000                                                                                
   RMAX   =    1.942    core radius for proj-oper                                                   
   RAUG   =    1.300    factor for augmentation sphere                                              
   RDEP   =    1.954    radius for radial grids                                                     
   RDEPT  =    1.744    core radius for aug-charge                                                  
                                                                                                    
   Atomic configuration                                                                             
    6 entries                                                                                       
     n  l   j            E        occ.                                                              
     1  0  0.50     -2405.8406   2.0000                                                             
     2  0  0.50      -211.7007   2.0000                                                             
     2  1  1.50      -156.4958   6.0000                                                             
     3  0  0.50       -17.2562   2.0000                                                             
     3  1  0.50        -7.0085   4.0000                                                             
     3  2  1.50        -6.8029   0.0000                                                             
   Description                                                                                      
     l       E           TYP  RCUT    TYP  RCUT                                                     
     0    -17.2561641     23  1.900                                                                 
     0    -15.8743224     23  1.900                                                                 
     1     -7.0085400     23  1.900                                                                 
     1     -2.7779785     23  1.900                                                                 
     2     -6.8029130     23  1.900                                                                 
  local pseudopotential read in
  partial core-charges read in
  partial kinetic energy density read in
  atomic valenz-charges read in
  non local Contribution for L=           0  read in
    real space projection operators read in
  non local Contribution for L=           0  read in
    real space projection operators read in
  non local Contribution for L=           1  read in
    real space projection operators read in
  non local Contribution for L=           1  read in
    real space projection operators read in
    PAW grid and wavefunctions read in
 
   number of l-projection  operators is LMAX  =           4
   number of lm-projection operators is LMMAX =           8
 
 POTCAR:    PAW_PBE Te 08Apr2002                  
   VRHFIN =Te: s2p4                                                                                 
   LEXCH  = PE                                                                                      
   EATOM  =   223.2721 eV,   16.4100 Ry                                                             
                                                                                                    
   TITEL  = PAW_PBE Te 08Apr2002                                                                    
   LULTRA =        F    use ultrasoft PP ?                                                          
   IUNSCR =        1    unscreen: 0-lin 1-nonlin 2-no                                               
   RPACOR =    2.200    partial core radius                                                         
   POMASS =  127.600; ZVAL   =    6.000    mass and valenz                                          
   RCORE  =    2.300    outmost cutoff radius                                                       
   RWIGS  =    2.900; RWIGS  =    1.535    wigner-seitz radius (au A)                               
   ENMAX  =  174.982; ENMIN  =  131.236 eV                                                          
   ICORE  =        3    local potential                                                             
   LCOR   =        T    correct aug charges                                                         
   LPAW   =        T    paw PP                                                                      
   EAUG   =  368.792                                                                                
   DEXC   =    0.000                                                                                
   RMAX   =    2.345    core radius for proj-oper                                                   
   RAUG   =    1.300    factor for augmentation sphere                                              
   RDEP   =    2.397    radius for radial grids                                                     
   RDEPT  =    2.174    core radius for aug-charge                                                  
                                                                                                    
   Atomic configuration                                                                             
   13 entries                                                                                       
     n  l   j            E        occ.                                                              
     1  0  0.50    -31621.2075   2.0000                                                             
     2  0  0.50     -4848.7941   2.0000                                                             
     2  1  1.50     -4352.1960   6.0000                                                             
     3  0  0.50      -964.9612   2.0000                                                             
     3  1  1.50      -803.6179   6.0000                                                             
     3  2  2.50      -559.8710  10.0000                                                             
     4  0  0.50      -164.3522   2.0000                                                             
     4  1  1.50      -114.3756   6.0000                                                             
     4  2  2.50       -41.6483  10.0000                                                             
     5  0  0.50       -15.1072   2.0000                                                             
     5  1  0.50        -5.9526   4.0000                                                             
     5  2  1.50        -5.4423   0.0000                                                             
     4  3  2.50        -5.4423   0.0000                                                             
   Description                                                                                      
     l       E           TYP  RCUT    TYP  RCUT                                                     
     0    -15.1072389     23  2.300                                                                 
     0    -16.4678215     23  2.300                                                                 
     1     -5.9526306     23  2.300                                                                 
     1     -2.4873968     23  2.300                                                                 
     2     -5.4423304     23  2.300                                                                 
     3     -1.3605826     23  2.300                                                                 
  local pseudopotential read in
  partial core-charges read in
  partial kinetic energy density read in
  atomic valenz-charges read in
  non local Contribution for L=           0  read in
    real space projection operators read in
  non local Contribution for L=           0  read in
    real space projection operators read in
  non local Contribution for L=           1  read in
    real space projection operators read in
  non local Contribution for L=           1  read in
    real space projection operators read in
  non local Contribution for L=           2  read in
    real space projection operators read in
    PAW grid and wavefunctions read in
 
   number of l-projection  operators is LMAX  =           5
   number of lm-projection operators is LMMAX =          13
 
  PAW_PBE Cr_pv 02Aug2007               :
 energy of atom  1       EATOM=-1647.9177
 kinetic energy error for atom=    0.0585 (will be added to EATOM!!)
  PAW_PBE S 06Sep2000                   :
 energy of atom  2       EATOM= -276.8230
 kinetic energy error for atom=    0.0053 (will be added to EATOM!!)
  PAW_PBE Te 08Apr2002                  :
 energy of atom  3       EATOM= -223.2721
 kinetic energy error for atom=    0.0022 (will be added to EATOM!!)
 
 
 POSCAR: Cr S Te
  positions in direct lattice
  velocities in cartesian coordinates
 exchange correlation table for  LEXCH =        8
   RHO(1)=    0.500       N(1)  =     2000
   RHO(2)=  100.500       N(2)  =     4000
 


--------------------------------------------------------------------------------------------------------


 ion  position               nearest neighbor table
   1  0.000  0.000  0.109-   2 2.34   2 2.34   2 2.34   3 2.84   3 2.84   3 2.84
   2  0.667  0.333  0.069-   1 2.34   1 2.34   1 2.34
   3  0.333  0.667  0.175-   1 2.84   1 2.84   1 2.84
 

IMPORTANT INFORMATION: All symmetrisations will be switched off!
NOSYMM: (Re-)initialisation of all symmetry stuff for point group C_1.


----------------------------------------------------------------------------------------

                                     Primitive cell                                     

  volume of cell :     316.1269

  direct lattice vectors                    reciprocal lattice vectors
     3.427808124  0.000000218  0.000000000     0.291731604  0.168431348  0.000000000
    -1.713904293  2.968568820  0.000000000    -0.000000021  0.336862651 -0.000000000
    -0.000000000  0.000000000 31.066888743     0.000000000  0.000000000  0.032188611

  length of vectors
     3.427808124  3.427808158 31.066888743     0.336862655  0.336862651  0.032188611

  position of ions in fractional coordinates (direct lattice)
     0.000000000  0.000000000  0.109235567
     0.666667000  0.333333000  0.069107151
     0.333334175  0.666667000  0.174792033

  ion indices of the primitive-cell ions
   primitive index   ion index
                 1           1
                 2           2
                 3           3

----------------------------------------------------------------------------------------

 
 
 KPOINTS: pymatgen with grid density = 603 / numbe

Automatic generation of k-mesh.
 Grid dimensions read from file:
 generate k-points for:   25   25    1

 Generating k-lattice:

  Cartesian coordinates                     Fractional coordinates (reciprocal lattice)
     0.011669264  0.006737254  0.000000000     0.040000000  0.000000000 -0.000000000
    -0.000000001  0.013474506 -0.000000000     0.000000000  0.040000000  0.000000000
     0.000000000  0.000000000  0.032188611     0.000000000  0.000000000  1.000000000

  Length of vectors
     0.013474506  0.013474506  0.032188611

  Shift w.r.t. Gamma in fractional coordinates (k-lattice)
     0.000000000  0.000000000  0.000000000

 TETIRR: Found   3750 inequivalent tetrahedra from     3750
 
 Subroutine IBZKPT returns following result:
 ===========================================
 
 Found    625 irreducible k-points:
 
 Following reciprocal coordinates:
            Coordinates               Weight
  0.000000  0.000000  0.000000      1.000000
  0.040000  0.000000  0.000000      1.000000
  0.080000  0.000000  0.000000      1.000000
  0.120000  0.000000  0.000000      1.000000
  0.160000  0.000000  0.000000      1.000000
  0.200000  0.000000  0.000000      1.000000
  0.240000 -0.000000  0.000000      1.000000
  0.280000  0.000000  0.000000      1.000000
  0.320000  0.000000  0.000000      1.000000
  0.360000  0.000000  0.000000      1.000000
  0.400000  0.000000 -0.000000      1.000000
  0.440000  0.000000  0.000000      1.000000
  0.480000  0.000000 -0.000000      1.000000
 -0.480000  0.000000  0.000000      1.000000
 -0.440000  0.000000  0.000000      1.000000
 -0.400000  0.000000  0.000000      1.000000
 -0.360000  0.000000 -0.000000      1.000000
 -0.320000 -0.000000 -0.000000      1.000000
 -0.280000 -0.000000 -0.000000      1.000000
 -0.240000  0.000000  0.000000      1.000000
 -0.200000  0.000000 -0.000000      1.000000
 -0.160000  0.000000 -0.000000      1.000000
 -0.120000 -0.000000 -0.000000      1.000000
 -0.080000  0.000000 -0.000000      1.000000
 -0.040000  0.000000 -0.000000      1.000000
 -0.000000  0.040000  0.000000      1.000000
  0.040000  0.040000  0.000000      1.000000
  0.080000  0.040000  0.000000      1.000000
  0.120000  0.040000  0.000000      1.000000
  0.160000  0.040000 -0.000000      1.000000
  0.200000  0.040000  0.000000      1.000000
  0.240000  0.040000  0.000000      1.000000
  0.280000  0.040000  0.000000      1.000000
  0.320000  0.040000  0.000000      1.000000
  0.360000  0.040000  0.000000      1.000000
  0.400000  0.040000  0.000000      1.000000
  0.440000  0.040000  0.000000      1.000000
  0.480000  0.040000 -0.000000      1.000000
 -0.480000  0.040000  0.000000      1.000000
 -0.440000  0.040000 -0.000000      1.000000
 -0.400000  0.040000  0.000000      1.000000
 -0.360000  0.040000 -0.000000      1.000000
 -0.320000  0.040000 -0.000000      1.000000
 -0.280000  0.040000 -0.000000      1.000000
 -0.240000  0.040000  0.000000      1.000000
 -0.200000  0.040000 -0.000000      1.000000
 -0.160000  0.040000 -0.000000      1.000000
 -0.120000  0.040000 -0.000000      1.000000
 -0.080000  0.040000 -0.000000      1.000000
 -0.040000  0.040000  0.000000      1.000000
 -0.000000  0.080000  0.000000      1.000000
  0.040000  0.080000  0.000000      1.000000
  0.080000  0.080000  0.000000      1.000000
  0.120000  0.080000  0.000000      1.000000
  0.160000  0.080000  0.000000      1.000000
  0.200000  0.080000  0.000000      1.000000
  0.240000  0.080000 -0.000000      1.000000
  0.280000  0.080000 -0.000000      1.000000
  0.320000  0.080000  0.000000      1.000000
  0.360000  0.080000  0.000000      1.000000
  0.400000  0.080000  0.000000      1.000000
  0.440000  0.080000  0.000000      1.000000
  0.480000  0.080000  0.000000      1.000000
 -0.480000  0.080000  0.000000      1.000000
 -0.440000  0.080000  0.000000      1.000000
 -0.400000  0.080000 -0.000000      1.000000
 -0.360000  0.080000 -0.000000      1.000000
 -0.320000  0.080000 -0.000000      1.000000
 -0.280000  0.080000  0.000000      1.000000
 -0.240000  0.080000 -0.000000      1.000000
 -0.200000  0.080000 -0.000000      1.000000
 -0.160000  0.080000 -0.000000      1.000000
 -0.120000  0.080000 -0.000000      1.000000
 -0.080000  0.080000  0.000000      1.000000
 -0.040000  0.080000 -0.000000      1.000000
  0.000000  0.120000  0.000000      1.000000
  0.040000  0.120000  0.000000      1.000000
  0.080000  0.120000  0.000000      1.000000
  0.120000  0.120000  0.000000      1.000000
  0.160000  0.120000  0.000000      1.000000
  0.200000  0.120000 -0.000000      1.000000
  0.240000  0.120000  0.000000      1.000000
  0.280000  0.120000  0.000000      1.000000
  0.320000  0.120000  0.000000      1.000000
  0.360000  0.120000  0.000000      1.000000
  0.400000  0.120000  0.000000      1.000000
  0.440000  0.120000 -0.000000      1.000000
  0.480000  0.120000  0.000000      1.000000
 -0.480000  0.120000 -0.000000      1.000000
 -0.440000  0.120000  0.000000      1.000000
 -0.400000  0.120000 -0.000000      1.000000
 -0.360000  0.120000 -0.000000      1.000000
 -0.320000  0.120000 -0.000000      1.000000
 -0.280000  0.120000  0.000000      1.000000
 -0.240000  0.120000  0.000000      1.000000
 -0.200000  0.120000 -0.000000      1.000000
 -0.160000  0.120000 -0.000000      1.000000
 -0.120000  0.120000 -0.000000      1.000000
 -0.080000  0.120000  0.000000      1.000000
 -0.040000  0.120000  0.000000      1.000000
 -0.000000  0.160000  0.000000      1.000000
  0.040000  0.160000  0.000000      1.000000
  0.080000  0.160000  0.000000      1.000000
  0.120000  0.160000  0.000000      1.000000
  0.160000  0.160000  0.000000      1.000000
  0.200000  0.160000  0.000000      1.000000
  0.240000  0.160000  0.000000      1.000000
  0.280000  0.160000  0.000000      1.000000
  0.320000  0.160000  0.000000      1.000000
  0.360000  0.160000  0.000000      1.000000
  0.400000  0.160000 -0.000000      1.000000
  0.440000  0.160000  0.000000      1.000000
  0.480000  0.160000  0.000000      1.000000
 -0.480000  0.160000  0.000000      1.000000
 -0.440000  0.160000 -0.000000      1.000000
 -0.400000  0.160000 -0.000000      1.000000
 -0.360000  0.160000 -0.000000      1.000000
 -0.320000  0.160000 -0.000000      1.000000
 -0.280000  0.160000 -0.000000      1.000000
 -0.240000  0.160000 -0.000000      1.000000
 -0.200000  0.160000 -0.000000      1.000000
 -0.160000  0.160000  0.000000      1.000000
 -0.120000  0.160000 -0.000000      1.000000
 -0.080000  0.160000 -0.000000      1.000000
 -0.040000  0.160000 -0.000000      1.000000
  0.000000  0.200000  0.000000      1.000000
  0.040000  0.200000  0.000000      1.000000
  0.080000  0.200000  0.000000      1.000000
  0.120000  0.200000  0.000000      1.000000
  0.160000  0.200000  0.000000      1.000000
  0.200000  0.200000  0.000000      1.000000
  0.240000  0.200000  0.000000      1.000000
  0.280000  0.200000  0.000000      1.000000
  0.320000  0.200000  0.000000      1.000000
  0.360000  0.200000  0.000000      1.000000
  0.400000  0.200000  0.000000      1.000000
  0.440000  0.200000 -0.000000      1.000000
  0.480000  0.200000 -0.000000      1.000000
 -0.480000  0.200000  0.000000      1.000000
 -0.440000  0.200000 -0.000000      1.000000
 -0.400000  0.200000  0.000000      1.000000
 -0.360000  0.200000 -0.000000      1.000000
 -0.320000  0.200000 -0.000000      1.000000
 -0.280000  0.200000 -0.000000      1.000000
 -0.240000  0.200000  0.000000      1.000000
 -0.200000  0.200000  0.000000      1.000000
 -0.160000  0.200000  0.000000      1.000000
 -0.120000  0.200000 -0.000000      1.000000
 -0.080000  0.200000 -0.000000      1.000000
 -0.040000  0.200000  0.000000      1.000000
  0.000000  0.240000  0.000000      1.000000
  0.040000  0.240000 -0.000000      1.000000
  0.080000  0.240000  0.000000      1.000000
  0.120000  0.240000  0.000000      1.000000
  0.160000  0.240000  0.000000      1.000000
  0.200000  0.240000  0.000000      1.000000
  0.240000  0.240000 -0.000000      1.000000
  0.280000  0.240000  0.000000      1.000000
  0.320000  0.240000  0.000000      1.000000
  0.360000  0.240000  0.000000      1.000000
  0.400000  0.240000 -0.000000      1.000000
  0.440000  0.240000 -0.000000      1.000000
  0.480000  0.240000  0.000000      1.000000
 -0.480000  0.240000 -0.000000      1.000000
 -0.440000  0.240000  0.000000      1.000000
 -0.400000  0.240000 -0.000000      1.000000
 -0.360000  0.240000 -0.000000      1.000000
 -0.320000  0.240000 -0.000000      1.000000
 -0.280000  0.240000 -0.000000      1.000000
 -0.240000  0.240000 -0.000000      1.000000
 -0.200000  0.240000 -0.000000      1.000000
 -0.160000  0.240000 -0.000000      1.000000
 -0.120000  0.240000  0.000000      1.000000
 -0.080000  0.240000  0.000000      1.000000
 -0.040000  0.240000 -0.000000      1.000000
 -0.000000  0.280000 -0.000000      1.000000
  0.040000  0.280000  0.000000      1.000000
  0.080000  0.280000  0.000000      1.000000
  0.120000  0.280000  0.000000      1.000000
  0.160000  0.280000  0.000000      1.000000
  0.200000  0.280000  0.000000      1.000000
  0.240000  0.280000 -0.000000      1.000000
  0.280000  0.280000  0.000000      1.000000
  0.320000  0.280000  0.000000      1.000000
  0.360000  0.280000  0.000000      1.000000
  0.400000  0.280000 -0.000000      1.000000
  0.440000  0.280000 -0.000000      1.000000
  0.480000  0.280000 -0.000000      1.000000
 -0.480000  0.280000 -0.000000      1.000000
 -0.440000  0.280000 -0.000000      1.000000
 -0.400000  0.280000  0.000000      1.000000
 -0.360000  0.280000 -0.000000      1.000000
 -0.320000  0.280000 -0.000000      1.000000
 -0.280000  0.280000 -0.000000      1.000000
 -0.240000  0.280000  0.000000      1.000000
 -0.200000  0.280000  0.000000      1.000000
 -0.160000  0.280000  0.000000      1.000000
 -0.120000  0.280000 -0.000000      1.000000
 -0.080000  0.280000 -0.000000      1.000000
 -0.040000  0.280000 -0.000000      1.000000
  0.000000  0.320000  0.000000      1.000000
  0.040000  0.320000  0.000000      1.000000
  0.080000  0.320000  0.000000      1.000000
  0.120000  0.320000  0.000000      1.000000
  0.160000  0.320000  0.000000      1.000000
  0.200000  0.320000  0.000000      1.000000
  0.240000  0.320000  0.000000      1.000000
  0.280000  0.320000  0.000000      1.000000
  0.320000  0.320000  0.000000      1.000000
  0.360000  0.320000  0.000000      1.000000
  0.400000  0.320000  0.000000      1.000000
  0.440000  0.320000  0.000000      1.000000
  0.480000  0.320000  0.000000      1.000000
 -0.480000  0.320000 -0.000000      1.000000
 -0.440000  0.320000  0.000000      1.000000
 -0.400000  0.320000  0.000000      1.000000
 -0.360000  0.320000  0.000000      1.000000
 -0.320000  0.320000  0.000000      1.000000
 -0.280000  0.320000 -0.000000      1.000000
 -0.240000  0.320000  0.000000      1.000000
 -0.200000  0.320000 -0.000000      1.000000
 -0.160000  0.320000 -0.000000      1.000000
 -0.120000  0.320000 -0.000000      1.000000
 -0.080000  0.320000  0.000000      1.000000
 -0.040000  0.320000 -0.000000      1.000000
 -0.000000  0.360000  0.000000      1.000000
  0.040000  0.360000  0.000000      1.000000
  0.080000  0.360000  0.000000      1.000000
  0.120000  0.360000  0.000000      1.000000
  0.160000  0.360000  0.000000      1.000000
  0.200000  0.360000  0.000000      1.000000
  0.240000  0.360000  0.000000      1.000000
  0.280000  0.360000  0.000000      1.000000
  0.320000  0.360000  0.000000      1.000000
  0.360000  0.360000  0.000000      1.000000
  0.400000  0.360000  0.000000      1.000000
  0.440000  0.360000  0.000000      1.000000
  0.480000  0.360000 -0.000000      1.000000
 -0.480000  0.360000  0.000000      1.000000
 -0.440000  0.360000 -0.000000      1.000000
 -0.400000  0.360000  0.000000      1.000000
 -0.360000  0.360000  0.000000      1.000000
 -0.320000  0.360000 -0.000000      1.000000
 -0.280000  0.360000  0.000000      1.000000
 -0.240000  0.360000  0.000000      1.000000
 -0.200000  0.360000 -0.000000      1.000000
 -0.160000  0.360000 -0.000000      1.000000
 -0.120000  0.360000 -0.000000      1.000000
 -0.080000  0.360000  0.000000      1.000000
 -0.040000  0.360000  0.000000      1.000000
 -0.000000  0.400000 -0.000000      1.000000
  0.040000  0.400000  0.000000      1.000000
  0.080000  0.400000  0.000000      1.000000
  0.120000  0.400000  0.000000      1.000000
  0.160000  0.400000 -0.000000      1.000000
  0.200000  0.400000  0.000000      1.000000
  0.240000  0.400000 -0.000000      1.000000
  0.280000  0.400000  0.000000      1.000000
  0.320000  0.400000  0.000000      1.000000
  0.360000  0.400000  0.000000      1.000000
  0.400000  0.400000  0.000000      1.000000
  0.440000  0.400000 -0.000000      1.000000
  0.480000  0.400000 -0.000000      1.000000
 -0.480000  0.400000  0.000000      1.000000
 -0.440000  0.400000 -0.000000      1.000000
 -0.400000  0.400000 -0.000000      1.000000
 -0.360000  0.400000  0.000000      1.000000
 -0.320000  0.400000  0.000000      1.000000
 -0.280000  0.400000 -0.000000      1.000000
 -0.240000  0.400000 -0.000000      1.000000
 -0.200000  0.400000 -0.000000      1.000000
 -0.160000  0.400000 -0.000000      1.000000
 -0.120000  0.400000 -0.000000      1.000000
 -0.080000  0.400000  0.000000      1.000000
 -0.040000  0.400000  0.000000      1.000000
  0.000000  0.440000  0.000000      1.000000
  0.040000  0.440000  0.000000      1.000000
  0.080000  0.440000  0.000000      1.000000
  0.120000  0.440000  0.000000      1.000000
  0.160000  0.440000  0.000000      1.000000
  0.200000  0.440000  0.000000      1.000000
  0.240000  0.440000  0.000000      1.000000
  0.280000  0.440000  0.000000      1.000000
  0.320000  0.440000  0.000000      1.000000
  0.360000  0.440000  0.000000      1.000000
  0.400000  0.440000  0.000000      1.000000
  0.440000  0.440000 -0.000000      1.000000
  0.480000  0.440000  0.000000      1.000000
 -0.480000  0.440000 -0.000000      1.000000
 -0.440000  0.440000 -0.000000      1.000000
 -0.400000  0.440000 -0.000000      1.000000
 -0.360000  0.440000  0.000000      1.000000
 -0.320000  0.440000 -0.000000      1.000000
 -0.280000  0.440000  0.000000      1.000000
 -0.240000  0.440000  0.000000      1.000000
 -0.200000  0.440000  0.000000      1.000000
 -0.160000  0.440000  0.000000      1.000000
 -0.120000  0.440000  0.000000      1.000000
 -0.080000  0.440000  0.000000      1.000000
 -0.040000  0.440000  0.000000      1.000000
 -0.000000  0.480000 -0.000000      1.000000
  0.040000  0.480000  0.000000      1.000000
  0.080000  0.480000 -0.000000      1.000000
  0.120000  0.480000  0.000000      1.000000
  0.160000  0.480000  0.000000      1.000000
  0.200000  0.480000  0.000000      1.000000
  0.240000  0.480000 -0.000000      1.000000
  0.280000  0.480000  0.000000      1.000000
  0.320000  0.480000  0.000000      1.000000
  0.360000  0.480000  0.000000      1.000000
  0.400000  0.480000  0.000000      1.000000
  0.440000  0.480000 -0.000000      1.000000
  0.480000  0.480000 -0.000000      1.000000
 -0.480000  0.480000 -0.000000      1.000000
 -0.440000  0.480000 -0.000000      1.000000
 -0.400000  0.480000  0.000000      1.000000
 -0.360000  0.480000 -0.000000      1.000000
 -0.320000  0.480000  0.000000      1.000000
 -0.280000  0.480000 -0.000000      1.000000
 -0.240000  0.480000  0.000000      1.000000
 -0.200000  0.480000  0.000000      1.000000
 -0.160000  0.480000  0.000000      1.000000
 -0.120000  0.480000  0.000000      1.000000
 -0.080000  0.480000  0.000000      1.000000
 -0.040000  0.480000  0.000000      1.000000
  0.000000 -0.480000  0.000000      1.000000
  0.040000 -0.480000  0.000000      1.000000
  0.080000 -0.480000  0.000000      1.000000
  0.120000 -0.480000  0.000000      1.000000
  0.160000 -0.480000 -0.000000      1.000000
  0.200000 -0.480000 -0.000000      1.000000
  0.240000 -0.480000  0.000000      1.000000
  0.280000 -0.480000  0.000000      1.000000
  0.320000 -0.480000 -0.000000      1.000000
  0.360000 -0.480000  0.000000      1.000000
  0.400000 -0.480000 -0.000000      1.000000
  0.440000 -0.480000  0.000000      1.000000
  0.480000 -0.480000  0.000000      1.000000
 -0.480000 -0.480000  0.000000      1.000000
 -0.440000 -0.480000  0.000000      1.000000
 -0.400000 -0.480000 -0.000000      1.000000
 -0.360000 -0.480000 -0.000000      1.000000
 -0.320000 -0.480000 -0.000000      1.000000
 -0.280000 -0.480000  0.000000      1.000000
 -0.240000 -0.480000  0.000000      1.000000
 -0.200000 -0.480000  0.000000      1.000000
 -0.160000 -0.480000 -0.000000      1.000000
 -0.120000 -0.480000 -0.000000      1.000000
 -0.080000 -0.480000  0.000000      1.000000
 -0.040000 -0.480000 -0.000000      1.000000
 -0.000000 -0.440000 -0.000000      1.000000
  0.040000 -0.440000 -0.000000      1.000000
  0.080000 -0.440000 -0.000000      1.000000
  0.120000 -0.440000  0.000000      1.000000
  0.160000 -0.440000 -0.000000      1.000000
  0.200000 -0.440000  0.000000      1.000000
  0.240000 -0.440000  0.000000      1.000000
  0.280000 -0.440000  0.000000      1.000000
  0.320000 -0.440000  0.000000      1.000000
  0.360000 -0.440000  0.000000      1.000000
  0.400000 -0.440000  0.000000      1.000000
  0.440000 -0.440000  0.000000      1.000000
  0.480000 -0.440000  0.000000      1.000000
 -0.480000 -0.440000  0.000000      1.000000
 -0.440000 -0.440000  0.000000      1.000000
 -0.400000 -0.440000 -0.000000      1.000000
 -0.360000 -0.440000 -0.000000      1.000000
 -0.320000 -0.440000 -0.000000      1.000000
 -0.280000 -0.440000 -0.000000      1.000000
 -0.240000 -0.440000 -0.000000      1.000000
 -0.200000 -0.440000 -0.000000      1.000000
 -0.160000 -0.440000 -0.000000      1.000000
 -0.120000 -0.440000 -0.000000      1.000000
 -0.080000 -0.440000 -0.000000      1.000000
 -0.040000 -0.440000 -0.000000      1.000000
  0.000000 -0.400000  0.000000      1.000000
  0.040000 -0.400000 -0.000000      1.000000
  0.080000 -0.400000 -0.000000      1.000000
  0.120000 -0.400000  0.000000      1.000000
  0.160000 -0.400000  0.000000      1.000000
  0.200000 -0.400000  0.000000      1.000000
  0.240000 -0.400000  0.000000      1.000000
  0.280000 -0.400000  0.000000      1.000000
  0.320000 -0.400000  0.000000      1.000000
  0.360000 -0.400000  0.000000      1.000000
  0.400000 -0.400000  0.000000      1.000000
  0.440000 -0.400000  0.000000      1.000000
  0.480000 -0.400000  0.000000      1.000000
 -0.480000 -0.400000  0.000000      1.000000
 -0.440000 -0.400000  0.000000      1.000000
 -0.400000 -0.400000  0.000000      1.000000
 -0.360000 -0.400000 -0.000000      1.000000
 -0.320000 -0.400000 -0.000000      1.000000
 -0.280000 -0.400000 -0.000000      1.000000
 -0.240000 -0.400000  0.000000      1.000000
 -0.200000 -0.400000 -0.000000      1.000000
 -0.160000 -0.400000  0.000000      1.000000
 -0.120000 -0.400000  0.000000      1.000000
 -0.080000 -0.400000 -0.000000      1.000000
 -0.040000 -0.400000 -0.000000      1.000000
  0.000000 -0.360000 -0.000000      1.000000
  0.040000 -0.360000  0.000000      1.000000
  0.080000 -0.360000 -0.000000      1.000000
  0.120000 -0.360000  0.000000      1.000000
  0.160000 -0.360000  0.000000      1.000000
  0.200000 -0.360000  0.000000      1.000000
  0.240000 -0.360000 -0.000000      1.000000
  0.280000 -0.360000  0.000000      1.000000
  0.320000 -0.360000  0.000000      1.000000
  0.360000 -0.360000 -0.000000      1.000000
  0.400000 -0.360000 -0.000000      1.000000
  0.440000 -0.360000  0.000000      1.000000
  0.480000 -0.360000 -0.000000      1.000000
 -0.480000 -0.360000  0.000000      1.000000
 -0.440000 -0.360000 -0.000000      1.000000
 -0.400000 -0.360000 -0.000000      1.000000
 -0.360000 -0.360000 -0.000000      1.000000
 -0.320000 -0.360000 -0.000000      1.000000
 -0.280000 -0.360000  0.000000      1.000000
 -0.240000 -0.360000 -0.000000      1.000000
 -0.200000 -0.360000 -0.000000      1.000000
 -0.160000 -0.360000  0.000000      1.000000
 -0.120000 -0.360000 -0.000000      1.000000
 -0.080000 -0.360000 -0.000000      1.000000
 -0.040000 -0.360000 -0.000000      1.000000
 -0.000000 -0.320000 -0.000000      1.000000
  0.040000 -0.320000  0.000000      1.000000
  0.080000 -0.320000  0.000000      1.000000
  0.120000 -0.320000  0.000000      1.000000
  0.160000 -0.320000  0.000000      1.000000
  0.200000 -0.320000  0.000000      1.000000
  0.240000 -0.320000 -0.000000      1.000000
  0.280000 -0.320000  0.000000      1.000000
  0.320000 -0.320000  0.000000      1.000000
  0.360000 -0.320000  0.000000      1.000000
  0.400000 -0.320000 -0.000000      1.000000
  0.440000 -0.320000  0.000000      1.000000
  0.480000 -0.320000  0.000000      1.000000
 -0.480000 -0.320000 -0.000000      1.000000
 -0.440000 -0.320000 -0.000000      1.000000
 -0.400000 -0.320000  0.000000      1.000000
 -0.360000 -0.320000 -0.000000      1.000000
 -0.320000 -0.320000 -0.000000      1.000000
 -0.280000 -0.320000 -0.000000      1.000000
 -0.240000 -0.320000  0.000000      1.000000
 -0.200000 -0.320000 -0.000000      1.000000
 -0.160000 -0.320000 -0.000000      1.000000
 -0.120000 -0.320000 -0.000000      1.000000
 -0.080000 -0.320000 -0.000000      1.000000
 -0.040000 -0.320000  0.000000      1.000000
  0.000000 -0.280000  0.000000      1.000000
  0.040000 -0.280000  0.000000      1.000000
  0.080000 -0.280000  0.000000      1.000000
  0.120000 -0.280000  0.000000      1.000000
  0.160000 -0.280000  0.000000      1.000000
  0.200000 -0.280000  0.000000      1.000000
  0.240000 -0.280000  0.000000      1.000000
  0.280000 -0.280000  0.000000      1.000000
  0.320000 -0.280000  0.000000      1.000000
  0.360000 -0.280000  0.000000      1.000000
  0.400000 -0.280000 -0.000000      1.000000
  0.440000 -0.280000  0.000000      1.000000
  0.480000 -0.280000  0.000000      1.000000
 -0.480000 -0.280000  0.000000      1.000000
 -0.440000 -0.280000  0.000000      1.000000
 -0.400000 -0.280000  0.000000      1.000000
 -0.360000 -0.280000  0.000000      1.000000
 -0.320000 -0.280000 -0.000000      1.000000
 -0.280000 -0.280000 -0.000000      1.000000
 -0.240000 -0.280000  0.000000      1.000000
 -0.200000 -0.280000 -0.000000      1.000000
 -0.160000 -0.280000 -0.000000      1.000000
 -0.120000 -0.280000 -0.000000      1.000000
 -0.080000 -0.280000 -0.000000      1.000000
 -0.040000 -0.280000  0.000000      1.000000
  0.000000 -0.240000 -0.000000      1.000000
  0.040000 -0.240000  0.000000      1.000000
  0.080000 -0.240000  0.000000      1.000000
  0.120000 -0.240000  0.000000      1.000000
  0.160000 -0.240000  0.000000      1.000000
  0.200000 -0.240000  0.000000      1.000000
  0.240000 -0.240000  0.000000      1.000000
  0.280000 -0.240000  0.000000      1.000000
  0.320000 -0.240000  0.000000      1.000000
  0.360000 -0.240000  0.000000      1.000000
  0.400000 -0.240000  0.000000      1.000000
  0.440000 -0.240000  0.000000      1.000000
  0.480000 -0.240000  0.000000      1.000000
 -0.480000 -0.240000  0.000000      1.000000
 -0.440000 -0.240000  0.000000      1.000000
 -0.400000 -0.240000  0.000000      1.000000
 -0.360000 -0.240000  0.000000      1.000000
 -0.320000 -0.240000 -0.000000      1.000000
 -0.280000 -0.240000  0.000000      1.000000
 -0.240000 -0.240000  0.000000      1.000000
 -0.200000 -0.240000  0.000000      1.000000
 -0.160000 -0.240000 -0.000000      1.000000
 -0.120000 -0.240000 -0.000000      1.000000
 -0.080000 -0.240000 -0.000000      1.000000
 -0.040000 -0.240000  0.000000      1.000000
  0.000000 -0.200000  0.000000      1.000000
  0.040000 -0.200000 -0.000000      1.000000
  0.080000 -0.200000  0.000000      1.000000
  0.120000 -0.200000  0.000000      1.000000
  0.160000 -0.200000  0.000000      1.000000
  0.200000 -0.200000 -0.000000      1.000000
  0.240000 -0.200000 -0.000000      1.000000
  0.280000 -0.200000  0.000000      1.000000
  0.320000 -0.200000  0.000000      1.000000
  0.360000 -0.200000  0.000000      1.000000
  0.400000 -0.200000  0.000000      1.000000
  0.440000 -0.200000  0.000000      1.000000
  0.480000 -0.200000  0.000000      1.000000
 -0.480000 -0.200000  0.000000      1.000000
 -0.440000 -0.200000  0.000000      1.000000
 -0.400000 -0.200000  0.000000      1.000000
 -0.360000 -0.200000 -0.000000      1.000000
 -0.320000 -0.200000 -0.000000      1.000000
 -0.280000 -0.200000 -0.000000      1.000000
 -0.240000 -0.200000  0.000000      1.000000
 -0.200000 -0.200000 -0.000000      1.000000
 -0.160000 -0.200000 -0.000000      1.000000
 -0.120000 -0.200000 -0.000000      1.000000
 -0.080000 -0.200000  0.000000      1.000000
 -0.040000 -0.200000 -0.000000      1.000000
  0.000000 -0.160000 -0.000000      1.000000
  0.040000 -0.160000  0.000000      1.000000
  0.080000 -0.160000  0.000000      1.000000
  0.120000 -0.160000  0.000000      1.000000
  0.160000 -0.160000  0.000000      1.000000
  0.200000 -0.160000  0.000000      1.000000
  0.240000 -0.160000  0.000000      1.000000
  0.280000 -0.160000  0.000000      1.000000
  0.320000 -0.160000  0.000000      1.000000
  0.360000 -0.160000  0.000000      1.000000
  0.400000 -0.160000  0.000000      1.000000
  0.440000 -0.160000  0.000000      1.000000
  0.480000 -0.160000 -0.000000      1.000000
 -0.480000 -0.160000  0.000000      1.000000
 -0.440000 -0.160000  0.000000      1.000000
 -0.400000 -0.160000  0.000000      1.000000
 -0.360000 -0.160000 -0.000000      1.000000
 -0.320000 -0.160000  0.000000      1.000000
 -0.280000 -0.160000  0.000000      1.000000
 -0.240000 -0.160000  0.000000      1.000000
 -0.200000 -0.160000 -0.000000      1.000000
 -0.160000 -0.160000 -0.000000      1.000000
 -0.120000 -0.160000 -0.000000      1.000000
 -0.080000 -0.160000 -0.000000      1.000000
 -0.040000 -0.160000  0.000000      1.000000
  0.000000 -0.120000 -0.000000      1.000000
  0.040000 -0.120000  0.000000      1.000000
  0.080000 -0.120000  0.000000      1.000000
  0.120000 -0.120000  0.000000      1.000000
  0.160000 -0.120000  0.000000      1.000000
  0.200000 -0.120000  0.000000      1.000000
  0.240000 -0.120000  0.000000      1.000000
  0.280000 -0.120000  0.000000      1.000000
  0.320000 -0.120000  0.000000      1.000000
  0.360000 -0.120000  0.000000      1.000000
  0.400000 -0.120000  0.000000      1.000000
  0.440000 -0.120000  0.000000      1.000000
  0.480000 -0.120000  0.000000      1.000000
 -0.480000 -0.120000  0.000000      1.000000
 -0.440000 -0.120000  0.000000      1.000000
 -0.400000 -0.120000 -0.000000      1.000000
 -0.360000 -0.120000  0.000000      1.000000
 -0.320000 -0.120000 -0.000000      1.000000
 -0.280000 -0.120000  0.000000      1.000000
 -0.240000 -0.120000 -0.000000      1.000000
 -0.200000 -0.120000  0.000000      1.000000
 -0.160000 -0.120000  0.000000      1.000000
 -0.120000 -0.120000 -0.000000      1.000000
 -0.080000 -0.120000  0.000000      1.000000
 -0.040000 -0.120000 -0.000000      1.000000
  0.000000 -0.080000 -0.000000      1.000000
  0.040000 -0.080000  0.000000      1.000000
  0.080000 -0.080000  0.000000      1.000000
  0.120000 -0.080000  0.000000      1.000000
  0.160000 -0.080000  0.000000      1.000000
  0.200000 -0.080000  0.000000      1.000000
  0.240000 -0.080000  0.000000      1.000000
  0.280000 -0.080000  0.000000      1.000000
  0.320000 -0.080000  0.000000      1.000000
  0.360000 -0.080000  0.000000      1.000000
  0.400000 -0.080000  0.000000      1.000000
  0.440000 -0.080000  0.000000      1.000000
  0.480000 -0.080000  0.000000      1.000000
 -0.480000 -0.080000 -0.000000      1.000000
 -0.440000 -0.080000 -0.000000      1.000000
 -0.400000 -0.080000  0.000000      1.000000
 -0.360000 -0.080000 -0.000000      1.000000
 -0.320000 -0.080000 -0.000000      1.000000
 -0.280000 -0.080000  0.000000      1.000000
 -0.240000 -0.080000  0.000000      1.000000
 -0.200000 -0.080000 -0.000000      1.000000
 -0.160000 -0.080000  0.000000      1.000000
 -0.120000 -0.080000 -0.000000      1.000000
 -0.080000 -0.080000 -0.000000      1.000000
 -0.040000 -0.080000 -0.000000      1.000000
  0.000000 -0.040000 -0.000000      1.000000
  0.040000 -0.040000  0.000000      1.000000
  0.080000 -0.040000  0.000000      1.000000
  0.120000 -0.040000  0.000000      1.000000
  0.160000 -0.040000  0.000000      1.000000
  0.200000 -0.040000  0.000000      1.000000
  0.240000 -0.040000 -0.000000      1.000000
  0.280000 -0.040000  0.000000      1.000000
  0.320000 -0.040000  0.000000      1.000000
  0.360000 -0.040000  0.000000      1.000000
  0.400000 -0.040000 -0.000000      1.000000
  0.440000 -0.040000  0.000000      1.000000
  0.480000 -0.040000  0.000000      1.000000
 -0.480000 -0.040000  0.000000      1.000000
 -0.440000 -0.040000  0.000000      1.000000
 -0.400000 -0.040000 -0.000000      1.000000
 -0.360000 -0.040000  0.000000      1.000000
 -0.320000 -0.040000 -0.000000      1.000000
 -0.280000 -0.040000 -0.000000      1.000000
 -0.240000 -0.040000  0.000000      1.000000
 -0.200000 -0.040000  0.000000      1.000000
 -0.160000 -0.040000  0.000000      1.000000
 -0.120000 -0.040000  0.000000      1.000000
 -0.080000 -0.040000  0.000000      1.000000
 -0.040000 -0.040000 -0.000000      1.000000
 
 Following cartesian coordinates:
            Coordinates               Weight
  0.000000  0.000000  0.000000      1.000000
  0.011669  0.006737  0.000000      1.000000
  0.023339  0.013475  0.000000      1.000000
  0.035008  0.020212  0.000000      1.000000
  0.046677  0.026949  0.000000      1.000000
  0.058346  0.033686  0.000000      1.000000
  0.070016  0.040424  0.000000      1.000000
  0.081685  0.047161  0.000000      1.000000
  0.093354  0.053898  0.000000      1.000000
  0.105023  0.060635  0.000000      1.000000
  0.116693  0.067373  0.000000      1.000000
  0.128362  0.074110  0.000000      1.000000
  0.140031  0.080847  0.000000      1.000000
 -0.140031 -0.080847 -0.000000      1.000000
 -0.128362 -0.074110 -0.000000      1.000000
 -0.116693 -0.067373 -0.000000      1.000000
 -0.105023 -0.060635 -0.000000      1.000000
 -0.093354 -0.053898 -0.000000      1.000000
 -0.081685 -0.047161 -0.000000      1.000000
 -0.070016 -0.040424 -0.000000      1.000000
 -0.058346 -0.033686 -0.000000      1.000000
 -0.046677 -0.026949 -0.000000      1.000000
 -0.035008 -0.020212 -0.000000      1.000000
 -0.023339 -0.013475 -0.000000      1.000000
 -0.011669 -0.006737 -0.000000      1.000000
 -0.000000  0.013475 -0.000000      1.000000
  0.011669  0.020212  0.000000      1.000000
  0.023339  0.026949  0.000000      1.000000
  0.035008  0.033686  0.000000      1.000000
  0.046677  0.040424  0.000000      1.000000
  0.058346  0.047161  0.000000      1.000000
  0.070016  0.053898  0.000000      1.000000
  0.081685  0.060635  0.000000      1.000000
  0.093354  0.067373  0.000000      1.000000
  0.105023  0.074110  0.000000      1.000000
  0.116693  0.080847  0.000000      1.000000
  0.128362  0.087584  0.000000      1.000000
  0.140031  0.094322  0.000000      1.000000
 -0.140031 -0.067373 -0.000000      1.000000
 -0.128362 -0.060635 -0.000000      1.000000
 -0.116693 -0.053898 -0.000000      1.000000
 -0.105023 -0.047161 -0.000000      1.000000
 -0.093354 -0.040424 -0.000000      1.000000
 -0.081685 -0.033686 -0.000000      1.000000
 -0.070016 -0.026949 -0.000000      1.000000
 -0.058346 -0.020212 -0.000000      1.000000
 -0.046677 -0.013475 -0.000000      1.000000
 -0.035008 -0.006737 -0.000000      1.000000
 -0.023339 -0.000000 -0.000000      1.000000
 -0.011669  0.006737 -0.000000      1.000000
 -0.000000  0.026949 -0.000000      1.000000
  0.011669  0.033686  0.000000      1.000000
  0.023339  0.040424  0.000000      1.000000
  0.035008  0.047161  0.000000      1.000000
  0.046677  0.053898  0.000000      1.000000
  0.058346  0.060635  0.000000      1.000000
  0.070016  0.067373  0.000000      1.000000
  0.081685  0.074110  0.000000      1.000000
  0.093354  0.080847  0.000000      1.000000
  0.105023  0.087584  0.000000      1.000000
  0.116693  0.094322  0.000000      1.000000
  0.128362  0.101059  0.000000      1.000000
  0.140031  0.107796  0.000000      1.000000
 -0.140031 -0.053898 -0.000000      1.000000
 -0.128362 -0.047161 -0.000000      1.000000
 -0.116693 -0.040424 -0.000000      1.000000
 -0.105023 -0.033686 -0.000000      1.000000
 -0.093354 -0.026949 -0.000000      1.000000
 -0.081685 -0.020212 -0.000000      1.000000
 -0.070016 -0.013475 -0.000000      1.000000
 -0.058346 -0.006737 -0.000000      1.000000
 -0.046677 -0.000000 -0.000000      1.000000
 -0.035008  0.006737 -0.000000      1.000000
 -0.023339  0.013475 -0.000000      1.000000
 -0.011669  0.020212 -0.000000      1.000000
 -0.000000  0.040424 -0.000000      1.000000
  0.011669  0.047161  0.000000      1.000000
  0.023339  0.053898  0.000000      1.000000
  0.035008  0.060635  0.000000      1.000000
  0.046677  0.067373  0.000000      1.000000
  0.058346  0.074110  0.000000      1.000000
  0.070016  0.080847  0.000000      1.000000
  0.081685  0.087584  0.000000      1.000000
  0.093354  0.094322  0.000000      1.000000
  0.105023  0.101059  0.000000      1.000000
  0.116693  0.107796  0.000000      1.000000
  0.128362  0.114533  0.000000      1.000000
  0.140031  0.121271  0.000000      1.000000
 -0.140031 -0.040424 -0.000000      1.000000
 -0.128362 -0.033686 -0.000000      1.000000
 -0.116693 -0.026949 -0.000000      1.000000
 -0.105023 -0.020212 -0.000000      1.000000
 -0.093354 -0.013475 -0.000000      1.000000
 -0.081685 -0.006737 -0.000000      1.000000
 -0.070016 -0.000000 -0.000000      1.000000
 -0.058346  0.006737 -0.000000      1.000000
 -0.046677  0.013475 -0.000000      1.000000
 -0.035008  0.020212 -0.000000      1.000000
 -0.023339  0.026949 -0.000000      1.000000
 -0.011669  0.033686 -0.000000      1.000000
 -0.000000  0.053898 -0.000000      1.000000
  0.011669  0.060635  0.000000      1.000000
  0.023339  0.067373  0.000000      1.000000
  0.035008  0.074110  0.000000      1.000000
  0.046677  0.080847  0.000000      1.000000
  0.058346  0.087584  0.000000      1.000000
  0.070016  0.094322  0.000000      1.000000
  0.081685  0.101059  0.000000      1.000000
  0.093354  0.107796  0.000000      1.000000
  0.105023  0.114533  0.000000      1.000000
  0.116693  0.121271  0.000000      1.000000
  0.128362  0.128008  0.000000      1.000000
  0.140031  0.134745  0.000000      1.000000
 -0.140031 -0.026949 -0.000000      1.000000
 -0.128362 -0.020212 -0.000000      1.000000
 -0.116693 -0.013475 -0.000000      1.000000
 -0.105023 -0.006737 -0.000000      1.000000
 -0.093354 -0.000000 -0.000000      1.000000
 -0.081685  0.006737 -0.000000      1.000000
 -0.070016  0.013475 -0.000000      1.000000
 -0.058346  0.020212 -0.000000      1.000000
 -0.046677  0.026949 -0.000000      1.000000
 -0.035008  0.033686 -0.000000      1.000000
 -0.023339  0.040424 -0.000000      1.000000
 -0.011669  0.047161 -0.000000      1.000000
 -0.000000  0.067373 -0.000000      1.000000
  0.011669  0.074110  0.000000      1.000000
  0.023339  0.080847  0.000000      1.000000
  0.035008  0.087584  0.000000      1.000000
  0.046677  0.094322  0.000000      1.000000
  0.058346  0.101059  0.000000      1.000000
  0.070016  0.107796  0.000000      1.000000
  0.081685  0.114533  0.000000      1.000000
  0.093354  0.121271  0.000000      1.000000
  0.105023  0.128008  0.000000      1.000000
  0.116693  0.134745  0.000000      1.000000
  0.128362  0.141482  0.000000      1.000000
  0.140031  0.148220  0.000000      1.000000
 -0.140031 -0.013475 -0.000000      1.000000
 -0.128362 -0.006737 -0.000000      1.000000
 -0.116693 -0.000000 -0.000000      1.000000
 -0.105023  0.006737 -0.000000      1.000000
 -0.093354  0.013474 -0.000000      1.000000
 -0.081685  0.020212 -0.000000      1.000000
 -0.070016  0.026949 -0.000000      1.000000
 -0.058346  0.033686 -0.000000      1.000000
 -0.046677  0.040424 -0.000000      1.000000
 -0.035008  0.047161 -0.000000      1.000000
 -0.023339  0.053898 -0.000000      1.000000
 -0.011669  0.060635 -0.000000      1.000000
 -0.000000  0.080847 -0.000000      1.000000
  0.011669  0.087584  0.000000      1.000000
  0.023339  0.094322  0.000000      1.000000
  0.035008  0.101059  0.000000      1.000000
  0.046677  0.107796  0.000000      1.000000
  0.058346  0.114533  0.000000      1.000000
  0.070016  0.121271  0.000000      1.000000
  0.081685  0.128008  0.000000      1.000000
  0.093354  0.134745  0.000000      1.000000
  0.105023  0.141482  0.000000      1.000000
  0.116693  0.148220  0.000000      1.000000
  0.128362  0.154957  0.000000      1.000000
  0.140031  0.161694  0.000000      1.000000
 -0.140031 -0.000000 -0.000000      1.000000
 -0.128362  0.006737 -0.000000      1.000000
 -0.116693  0.013474 -0.000000      1.000000
 -0.105023  0.020212 -0.000000      1.000000
 -0.093354  0.026949 -0.000000      1.000000
 -0.081685  0.033686 -0.000000      1.000000
 -0.070016  0.040424 -0.000000      1.000000
 -0.058346  0.047161 -0.000000      1.000000
 -0.046677  0.053898 -0.000000      1.000000
 -0.035008  0.060635 -0.000000      1.000000
 -0.023339  0.067373 -0.000000      1.000000
 -0.011669  0.074110 -0.000000      1.000000
 -0.000000  0.094322 -0.000000      1.000000
  0.011669  0.101059  0.000000      1.000000
  0.023339  0.107796  0.000000      1.000000
  0.035008  0.114533  0.000000      1.000000
  0.046677  0.121271  0.000000      1.000000
  0.058346  0.128008  0.000000      1.000000
  0.070016  0.134745  0.000000      1.000000
  0.081685  0.141482  0.000000      1.000000
  0.093354  0.148220  0.000000      1.000000
  0.105023  0.154957  0.000000      1.000000
  0.116693  0.161694  0.000000      1.000000
  0.128362  0.168431  0.000000      1.000000
  0.140031  0.175169  0.000000      1.000000
 -0.140031  0.013474 -0.000000      1.000000
 -0.128362  0.020212 -0.000000      1.000000
 -0.116693  0.026949 -0.000000      1.000000
 -0.105023  0.033686 -0.000000      1.000000
 -0.093354  0.040424 -0.000000      1.000000
 -0.081685  0.047161 -0.000000      1.000000
 -0.070016  0.053898 -0.000000      1.000000
 -0.058346  0.060635 -0.000000      1.000000
 -0.046677  0.067373 -0.000000      1.000000
 -0.035008  0.074110 -0.000000      1.000000
 -0.023339  0.080847 -0.000000      1.000000
 -0.011669  0.087584 -0.000000      1.000000
 -0.000000  0.107796 -0.000000      1.000000
  0.011669  0.114533  0.000000      1.000000
  0.023339  0.121271  0.000000      1.000000
  0.035008  0.128008  0.000000      1.000000
  0.046677  0.134745  0.000000      1.000000
  0.058346  0.141482  0.000000      1.000000
  0.070016  0.148220  0.000000      1.000000
  0.081685  0.154957  0.000000      1.000000
  0.093354  0.161694  0.000000      1.000000
  0.105023  0.168431  0.000000      1.000000
  0.116693  0.175169  0.000000      1.000000
  0.128362  0.181906  0.000000      1.000000
  0.140031  0.188643  0.000000      1.000000
 -0.140031  0.026949 -0.000000      1.000000
 -0.128362  0.033686 -0.000000      1.000000
 -0.116693  0.040424 -0.000000      1.000000
 -0.105023  0.047161 -0.000000      1.000000
 -0.093354  0.053898 -0.000000      1.000000
 -0.081685  0.060635 -0.000000      1.000000
 -0.070016  0.067373 -0.000000      1.000000
 -0.058346  0.074110 -0.000000      1.000000
 -0.046677  0.080847 -0.000000      1.000000
 -0.035008  0.087584 -0.000000      1.000000
 -0.023339  0.094322 -0.000000      1.000000
 -0.011669  0.101059 -0.000000      1.000000
 -0.000000  0.121271 -0.000000      1.000000
  0.011669  0.128008  0.000000      1.000000
  0.023339  0.134745  0.000000      1.000000
  0.035008  0.141482  0.000000      1.000000
  0.046677  0.148220  0.000000      1.000000
  0.058346  0.154957  0.000000      1.000000
  0.070016  0.161694  0.000000      1.000000
  0.081685  0.168431  0.000000      1.000000
  0.093354  0.175169  0.000000      1.000000
  0.105023  0.181906  0.000000      1.000000
  0.116693  0.188643  0.000000      1.000000
  0.128362  0.195380  0.000000      1.000000
  0.140031  0.202118  0.000000      1.000000
 -0.140031  0.040424 -0.000000      1.000000
 -0.128362  0.047161 -0.000000      1.000000
 -0.116693  0.053898 -0.000000      1.000000
 -0.105023  0.060635 -0.000000      1.000000
 -0.093354  0.067373 -0.000000      1.000000
 -0.081685  0.074110 -0.000000      1.000000
 -0.070016  0.080847 -0.000000      1.000000
 -0.058346  0.087584 -0.000000      1.000000
 -0.046677  0.094322 -0.000000      1.000000
 -0.035008  0.101059 -0.000000      1.000000
 -0.023339  0.107796 -0.000000      1.000000
 -0.011669  0.114533 -0.000000      1.000000
 -0.000000  0.134745 -0.000000      1.000000
  0.011669  0.141482  0.000000      1.000000
  0.023339  0.148220  0.000000      1.000000
  0.035008  0.154957  0.000000      1.000000
  0.046677  0.161694  0.000000      1.000000
  0.058346  0.168431  0.000000      1.000000
  0.070016  0.175169  0.000000      1.000000
  0.081685  0.181906  0.000000      1.000000
  0.093354  0.188643  0.000000      1.000000
  0.105023  0.195380  0.000000      1.000000
  0.116693  0.202118  0.000000      1.000000
  0.128362  0.208855  0.000000      1.000000
  0.140031  0.215592  0.000000      1.000000
 -0.140031  0.053898 -0.000000      1.000000
 -0.128362  0.060635 -0.000000      1.000000
 -0.116693  0.067373 -0.000000      1.000000
 -0.105023  0.074110 -0.000000      1.000000
 -0.093354  0.080847 -0.000000      1.000000
 -0.081685  0.087584 -0.000000      1.000000
 -0.070016  0.094322 -0.000000      1.000000
 -0.058346  0.101059 -0.000000      1.000000
 -0.046677  0.107796 -0.000000      1.000000
 -0.035008  0.114533 -0.000000      1.000000
 -0.023339  0.121271 -0.000000      1.000000
 -0.011669  0.128008 -0.000000      1.000000
 -0.000000  0.148220 -0.000000      1.000000
  0.011669  0.154957  0.000000      1.000000
  0.023339  0.161694  0.000000      1.000000
  0.035008  0.168431  0.000000      1.000000
  0.046677  0.175169  0.000000      1.000000
  0.058346  0.181906  0.000000      1.000000
  0.070016  0.188643  0.000000      1.000000
  0.081685  0.195380  0.000000      1.000000
  0.093354  0.202118  0.000000      1.000000
  0.105023  0.208855  0.000000      1.000000
  0.116693  0.215592  0.000000      1.000000
  0.128362  0.222329  0.000000      1.000000
  0.140031  0.229067  0.000000      1.000000
 -0.140031  0.067373 -0.000000      1.000000
 -0.128362  0.074110 -0.000000      1.000000
 -0.116693  0.080847 -0.000000      1.000000
 -0.105023  0.087584 -0.000000      1.000000
 -0.093354  0.094322 -0.000000      1.000000
 -0.081685  0.101059 -0.000000      1.000000
 -0.070016  0.107796 -0.000000      1.000000
 -0.058346  0.114533 -0.000000      1.000000
 -0.046677  0.121271 -0.000000      1.000000
 -0.035008  0.128008 -0.000000      1.000000
 -0.023339  0.134745 -0.000000      1.000000
 -0.011669  0.141482 -0.000000      1.000000
 -0.000000  0.161694 -0.000000      1.000000
  0.011669  0.168431  0.000000      1.000000
  0.023339  0.175169  0.000000      1.000000
  0.035008  0.181906  0.000000      1.000000
  0.046677  0.188643  0.000000      1.000000
  0.058346  0.195380  0.000000      1.000000
  0.070016  0.202118  0.000000      1.000000
  0.081685  0.208855  0.000000      1.000000
  0.093354  0.215592  0.000000      1.000000
  0.105023  0.222329  0.000000      1.000000
  0.116693  0.229067  0.000000      1.000000
  0.128362  0.235804  0.000000      1.000000
  0.140031  0.242541  0.000000      1.000000
 -0.140031  0.080847 -0.000000      1.000000
 -0.128362  0.087584 -0.000000      1.000000
 -0.116693  0.094322 -0.000000      1.000000
 -0.105023  0.101059 -0.000000      1.000000
 -0.093354  0.107796 -0.000000      1.000000
 -0.081685  0.114533 -0.000000      1.000000
 -0.070016  0.121271 -0.000000      1.000000
 -0.058346  0.128008 -0.000000      1.000000
 -0.046677  0.134745 -0.000000      1.000000
 -0.035008  0.141482 -0.000000      1.000000
 -0.023339  0.148220 -0.000000      1.000000
 -0.011669  0.154957 -0.000000      1.000000
  0.000000 -0.161694  0.000000      1.000000
  0.011669 -0.154957  0.000000      1.000000
  0.023339 -0.148220  0.000000      1.000000
  0.035008 -0.141482  0.000000      1.000000
  0.046677 -0.134745  0.000000      1.000000
  0.058346 -0.128008  0.000000      1.000000
  0.070016 -0.121271  0.000000      1.000000
  0.081685 -0.114533  0.000000      1.000000
  0.093354 -0.107796  0.000000      1.000000
  0.105023 -0.101059  0.000000      1.000000
  0.116693 -0.094322  0.000000      1.000000
  0.128362 -0.087584  0.000000      1.000000
  0.140031 -0.080847  0.000000      1.000000
 -0.140031 -0.242541 -0.000000      1.000000
 -0.128362 -0.235804 -0.000000      1.000000
 -0.116693 -0.229067 -0.000000      1.000000
 -0.105023 -0.222329 -0.000000      1.000000
 -0.093354 -0.215592 -0.000000      1.000000
 -0.081685 -0.208855 -0.000000      1.000000
 -0.070016 -0.202118 -0.000000      1.000000
 -0.058346 -0.195380 -0.000000      1.000000
 -0.046677 -0.188643 -0.000000      1.000000
 -0.035008 -0.181906 -0.000000      1.000000
 -0.023339 -0.175169 -0.000000      1.000000
 -0.011669 -0.168431 -0.000000      1.000000
  0.000000 -0.148220  0.000000      1.000000
  0.011669 -0.141482  0.000000      1.000000
  0.023339 -0.134745  0.000000      1.000000
  0.035008 -0.128008  0.000000      1.000000
  0.046677 -0.121271  0.000000      1.000000
  0.058346 -0.114533  0.000000      1.000000
  0.070016 -0.107796  0.000000      1.000000
  0.081685 -0.101059  0.000000      1.000000
  0.093354 -0.094322  0.000000      1.000000
  0.105023 -0.087584  0.000000      1.000000
  0.116693 -0.080847  0.000000      1.000000
  0.128362 -0.074110  0.000000      1.000000
  0.140031 -0.067373  0.000000      1.000000
 -0.140031 -0.229067 -0.000000      1.000000
 -0.128362 -0.222329 -0.000000      1.000000
 -0.116693 -0.215592 -0.000000      1.000000
 -0.105023 -0.208855 -0.000000      1.000000
 -0.093354 -0.202118 -0.000000      1.000000
 -0.081685 -0.195380 -0.000000      1.000000
 -0.070016 -0.188643 -0.000000      1.000000
 -0.058346 -0.181906 -0.000000      1.000000
 -0.046677 -0.175169 -0.000000      1.000000
 -0.035008 -0.168431 -0.000000      1.000000
 -0.023339 -0.161694 -0.000000      1.000000
 -0.011669 -0.154957 -0.000000      1.000000
  0.000000 -0.134745  0.000000      1.000000
  0.011669 -0.128008  0.000000      1.000000
  0.023339 -0.121271  0.000000      1.000000
  0.035008 -0.114533  0.000000      1.000000
  0.046677 -0.107796  0.000000      1.000000
  0.058346 -0.101059  0.000000      1.000000
  0.070016 -0.094322  0.000000      1.000000
  0.081685 -0.087584  0.000000      1.000000
  0.093354 -0.080847  0.000000      1.000000
  0.105023 -0.074110  0.000000      1.000000
  0.116693 -0.067373  0.000000      1.000000
  0.128362 -0.060635  0.000000      1.000000
  0.140031 -0.053898  0.000000      1.000000
 -0.140031 -0.215592 -0.000000      1.000000
 -0.128362 -0.208855 -0.000000      1.000000
 -0.116693 -0.202118 -0.000000      1.000000
 -0.105023 -0.195380 -0.000000      1.000000
 -0.093354 -0.188643 -0.000000      1.000000
 -0.081685 -0.181906 -0.000000      1.000000
 -0.070016 -0.175169 -0.000000      1.000000
 -0.058346 -0.168431 -0.000000      1.000000
 -0.046677 -0.161694 -0.000000      1.000000
 -0.035008 -0.154957 -0.000000      1.000000
 -0.023339 -0.148220 -0.000000      1.000000
 -0.011669 -0.141482 -0.000000      1.000000
  0.000000 -0.121271  0.000000      1.000000
  0.011669 -0.114533  0.000000      1.000000
  0.023339 -0.107796  0.000000      1.000000
  0.035008 -0.101059  0.000000      1.000000
  0.046677 -0.094322  0.000000      1.000000
  0.058346 -0.087584  0.000000      1.000000
  0.070016 -0.080847  0.000000      1.000000
  0.081685 -0.074110  0.000000      1.000000
  0.093354 -0.067373  0.000000      1.000000
  0.105023 -0.060635  0.000000      1.000000
  0.116693 -0.053898  0.000000      1.000000
  0.128362 -0.047161  0.000000      1.000000
  0.140031 -0.040424  0.000000      1.000000
 -0.140031 -0.202118 -0.000000      1.000000
 -0.128362 -0.195380 -0.000000      1.000000
 -0.116693 -0.188643 -0.000000      1.000000
 -0.105023 -0.181906 -0.000000      1.000000
 -0.093354 -0.175169 -0.000000      1.000000
 -0.081685 -0.168431 -0.000000      1.000000
 -0.070016 -0.161694 -0.000000      1.000000
 -0.058346 -0.154957 -0.000000      1.000000
 -0.046677 -0.148220 -0.000000      1.000000
 -0.035008 -0.141482 -0.000000      1.000000
 -0.023339 -0.134745 -0.000000      1.000000
 -0.011669 -0.128008 -0.000000      1.000000
  0.000000 -0.107796  0.000000      1.000000
  0.011669 -0.101059  0.000000      1.000000
  0.023339 -0.094322  0.000000      1.000000
  0.035008 -0.087584  0.000000      1.000000
  0.046677 -0.080847  0.000000      1.000000
  0.058346 -0.074110  0.000000      1.000000
  0.070016 -0.067373  0.000000      1.000000
  0.081685 -0.060635  0.000000      1.000000
  0.093354 -0.053898  0.000000      1.000000
  0.105023 -0.047161  0.000000      1.000000
  0.116693 -0.040424  0.000000      1.000000
  0.128362 -0.033686  0.000000      1.000000
  0.140031 -0.026949  0.000000      1.000000
 -0.140031 -0.188643 -0.000000      1.000000
 -0.128362 -0.181906 -0.000000      1.000000
 -0.116693 -0.175169 -0.000000      1.000000
 -0.105023 -0.168431 -0.000000      1.000000
 -0.093354 -0.161694 -0.000000      1.000000
 -0.081685 -0.154957 -0.000000      1.000000
 -0.070016 -0.148220 -0.000000      1.000000
 -0.058346 -0.141482 -0.000000      1.000000
 -0.046677 -0.134745 -0.000000      1.000000
 -0.035008 -0.128008 -0.000000      1.000000
 -0.023339 -0.121271 -0.000000      1.000000
 -0.011669 -0.114533 -0.000000      1.000000
  0.000000 -0.094322  0.000000      1.000000
  0.011669 -0.087584  0.000000      1.000000
  0.023339 -0.080847  0.000000      1.000000
  0.035008 -0.074110  0.000000      1.000000
  0.046677 -0.067373  0.000000      1.000000
  0.058346 -0.060635  0.000000      1.000000
  0.070016 -0.053898  0.000000      1.000000
  0.081685 -0.047161  0.000000      1.000000
  0.093354 -0.040424  0.000000      1.000000
  0.105023 -0.033686  0.000000      1.000000
  0.116693 -0.026949  0.000000      1.000000
  0.128362 -0.020212  0.000000      1.000000
  0.140031 -0.013474  0.000000      1.000000
 -0.140031 -0.175169 -0.000000      1.000000
 -0.128362 -0.168431 -0.000000      1.000000
 -0.116693 -0.161694 -0.000000      1.000000
 -0.105023 -0.154957 -0.000000      1.000000
 -0.093354 -0.148220 -0.000000      1.000000
 -0.081685 -0.141482 -0.000000      1.000000
 -0.070016 -0.134745 -0.000000      1.000000
 -0.058346 -0.128008 -0.000000      1.000000
 -0.046677 -0.121271 -0.000000      1.000000
 -0.035008 -0.114533 -0.000000      1.000000
 -0.023339 -0.107796 -0.000000      1.000000
 -0.011669 -0.101059 -0.000000      1.000000
  0.000000 -0.080847  0.000000      1.000000
  0.011669 -0.074110  0.000000      1.000000
  0.023339 -0.067373  0.000000      1.000000
  0.035008 -0.060635  0.000000      1.000000
  0.046677 -0.053898  0.000000      1.000000
  0.058346 -0.047161  0.000000      1.000000
  0.070016 -0.040424  0.000000      1.000000
  0.081685 -0.033686  0.000000      1.000000
  0.093354 -0.026949  0.000000      1.000000
  0.105023 -0.020212  0.000000      1.000000
  0.116693 -0.013474  0.000000      1.000000
  0.128362 -0.006737  0.000000      1.000000
  0.140031  0.000000  0.000000      1.000000
 -0.140031 -0.161694 -0.000000      1.000000
 -0.128362 -0.154957 -0.000000      1.000000
 -0.116693 -0.148220 -0.000000      1.000000
 -0.105023 -0.141482 -0.000000      1.000000
 -0.093354 -0.134745 -0.000000      1.000000
 -0.081685 -0.128008 -0.000000      1.000000
 -0.070016 -0.121271 -0.000000      1.000000
 -0.058346 -0.114533 -0.000000      1.000000
 -0.046677 -0.107796 -0.000000      1.000000
 -0.035008 -0.101059 -0.000000      1.000000
 -0.023339 -0.094322 -0.000000      1.000000
 -0.011669 -0.087584 -0.000000      1.000000
  0.000000 -0.067373  0.000000      1.000000
  0.011669 -0.060635  0.000000      1.000000
  0.023339 -0.053898  0.000000      1.000000
  0.035008 -0.047161  0.000000      1.000000
  0.046677 -0.040424  0.000000      1.000000
  0.058346 -0.033686  0.000000      1.000000
  0.070016 -0.026949  0.000000      1.000000
  0.081685 -0.020212  0.000000      1.000000
  0.093354 -0.013474  0.000000      1.000000
  0.105023 -0.006737  0.000000      1.000000
  0.116693  0.000000  0.000000      1.000000
  0.128362  0.006737  0.000000      1.000000
  0.140031  0.013475  0.000000      1.000000
 -0.140031 -0.148220 -0.000000      1.000000
 -0.128362 -0.141482 -0.000000      1.000000
 -0.116693 -0.134745 -0.000000      1.000000
 -0.105023 -0.128008 -0.000000      1.000000
 -0.093354 -0.121271 -0.000000      1.000000
 -0.081685 -0.114533 -0.000000      1.000000
 -0.070016 -0.107796 -0.000000      1.000000
 -0.058346 -0.101059 -0.000000      1.000000
 -0.046677 -0.094322 -0.000000      1.000000
 -0.035008 -0.087584 -0.000000      1.000000
 -0.023339 -0.080847 -0.000000      1.000000
 -0.011669 -0.074110 -0.000000      1.000000
  0.000000 -0.053898  0.000000      1.000000
  0.011669 -0.047161  0.000000      1.000000
  0.023339 -0.040424  0.000000      1.000000
  0.035008 -0.033686  0.000000      1.000000
  0.046677 -0.026949  0.000000      1.000000
  0.058346 -0.020212  0.000000      1.000000
  0.070016 -0.013475  0.000000      1.000000
  0.081685 -0.006737  0.000000      1.000000
  0.093354  0.000000  0.000000      1.000000
  0.105023  0.006737  0.000000      1.000000
  0.116693  0.013475  0.000000      1.000000
  0.128362  0.020212  0.000000      1.000000
  0.140031  0.026949  0.000000      1.000000
 -0.140031 -0.134745 -0.000000      1.000000
 -0.128362 -0.128008 -0.000000      1.000000
 -0.116693 -0.121271 -0.000000      1.000000
 -0.105023 -0.114533 -0.000000      1.000000
 -0.093354 -0.107796 -0.000000      1.000000
 -0.081685 -0.101059 -0.000000      1.000000
 -0.070016 -0.094322 -0.000000      1.000000
 -0.058346 -0.087584 -0.000000      1.000000
 -0.046677 -0.080847 -0.000000      1.000000
 -0.035008 -0.074110 -0.000000      1.000000
 -0.023339 -0.067373 -0.000000      1.000000
 -0.011669 -0.060635 -0.000000      1.000000
  0.000000 -0.040424  0.000000      1.000000
  0.011669 -0.033686  0.000000      1.000000
  0.023339 -0.026949  0.000000      1.000000
  0.035008 -0.020212  0.000000      1.000000
  0.046677 -0.013475  0.000000      1.000000
  0.058346 -0.006737  0.000000      1.000000
  0.070016  0.000000  0.000000      1.000000
  0.081685  0.006737  0.000000      1.000000
  0.093354  0.013475  0.000000      1.000000
  0.105023  0.020212  0.000000      1.000000
  0.116693  0.026949  0.000000      1.000000
  0.128362  0.033686  0.000000      1.000000
  0.140031  0.040424  0.000000      1.000000
 -0.140031 -0.121271 -0.000000      1.000000
 -0.128362 -0.114533 -0.000000      1.000000
 -0.116693 -0.107796 -0.000000      1.000000
 -0.105023 -0.101059 -0.000000      1.000000
 -0.093354 -0.094322 -0.000000      1.000000
 -0.081685 -0.087584 -0.000000      1.000000
 -0.070016 -0.080847 -0.000000      1.000000
 -0.058346 -0.074110 -0.000000      1.000000
 -0.046677 -0.067373 -0.000000      1.000000
 -0.035008 -0.060635 -0.000000      1.000000
 -0.023339 -0.053898 -0.000000      1.000000
 -0.011669 -0.047161 -0.000000      1.000000
  0.000000 -0.026949  0.000000      1.000000
  0.011669 -0.020212  0.000000      1.000000
  0.023339 -0.013475  0.000000      1.000000
  0.035008 -0.006737  0.000000      1.000000
  0.046677  0.000000  0.000000      1.000000
  0.058346  0.006737  0.000000      1.000000
  0.070016  0.013475  0.000000      1.000000
  0.081685  0.020212  0.000000      1.000000
  0.093354  0.026949  0.000000      1.000000
  0.105023  0.033686  0.000000      1.000000
  0.116693  0.040424  0.000000      1.000000
  0.128362  0.047161  0.000000      1.000000
  0.140031  0.053898  0.000000      1.000000
 -0.140031 -0.107796 -0.000000      1.000000
 -0.128362 -0.101059 -0.000000      1.000000
 -0.116693 -0.094322 -0.000000      1.000000
 -0.105023 -0.087584 -0.000000      1.000000
 -0.093354 -0.080847 -0.000000      1.000000
 -0.081685 -0.074110 -0.000000      1.000000
 -0.070016 -0.067373 -0.000000      1.000000
 -0.058346 -0.060635 -0.000000      1.000000
 -0.046677 -0.053898 -0.000000      1.000000
 -0.035008 -0.047161 -0.000000      1.000000
 -0.023339 -0.040424 -0.000000      1.000000
 -0.011669 -0.033686 -0.000000      1.000000
  0.000000 -0.013475  0.000000      1.000000
  0.011669 -0.006737  0.000000      1.000000
  0.023339  0.000000  0.000000      1.000000
  0.035008  0.006737  0.000000      1.000000
  0.046677  0.013475  0.000000      1.000000
  0.058346  0.020212  0.000000      1.000000
  0.070016  0.026949  0.000000      1.000000
  0.081685  0.033686  0.000000      1.000000
  0.093354  0.040424  0.000000      1.000000
  0.105023  0.047161  0.000000      1.000000
  0.116693  0.053898  0.000000      1.000000
  0.128362  0.060635  0.000000      1.000000
  0.140031  0.067373  0.000000      1.000000
 -0.140031 -0.094322 -0.000000      1.000000
 -0.128362 -0.087584 -0.000000      1.000000
 -0.116693 -0.080847 -0.000000      1.000000
 -0.105023 -0.074110 -0.000000      1.000000
 -0.093354 -0.067373 -0.000000      1.000000
 -0.081685 -0.060635 -0.000000      1.000000
 -0.070016 -0.053898 -0.000000      1.000000
 -0.058346 -0.047161 -0.000000      1.000000
 -0.046677 -0.040424 -0.000000      1.000000
 -0.035008 -0.033686 -0.000000      1.000000
 -0.023339 -0.026949 -0.000000      1.000000
 -0.011669 -0.020212 -0.000000      1.000000
 


--------------------------------------------------------------------------------------------------------




 Dimension of arrays:
   k-points           NKPTS =    625   k-points in BZ     NKDIM =    625   number of bands    NBANDS=     64
   number of dos      NEDOS =   2001   number of ions     NIONS =      3
   non local maximal  LDIM  =      6   non local SUM 2l+1 LMDIM =     18
   total plane-waves  NPLWV =  76800
   max r-space proj   IRMAX =      1   max aug-charges    IRDMAX=  14328
   dimension x,y,z NGX =    20 NGY =   20 NGZ =  192
   dimension x,y,z NGXF=    40 NGYF=   40 NGZF=  384
   support grid    NGXF=    40 NGYF=   40 NGZF=  384
   ions per type =               1   1   1
   NGX,Y,Z   is equivalent  to a cutoff of   9.70,  9.70, 10.27 a.u.
   NGXF,Y,Z  is equivalent  to a cutoff of  19.40, 19.40, 20.55 a.u.

 SYSTEM =  unknown system                          
 POSCAR =  Cr S Te                                 

 Startparameter for this run:
   NWRITE =      2    write-flag & timer
   PREC   = accura    normal or accurate (medium, high low for compatibility)
   ISTART =      0    job   : 0-new  1-cont  2-samecut
   ICHARG =     11    charge: 1-file 2-atom 10-const
   ISPIN  =      1    spin polarized calculation?
   LNONCOLLINEAR =      T non collinear calculations
   LSORBIT =      T    spin-orbit coupling
   INIWAV =      1    electr: 0-lowe 1-rand  2-diag
   LASPH  =      T    aspherical Exc in radial PAW
 Electronic Relaxation 1
   ENCUT  =  330.0 eV  24.25 Ry    4.92 a.u.   5.08  5.08 46.02*2*pi/ulx,y,z
   ENINI  =  330.0     initial cutoff
   ENAUG  =  519.4 eV  augmentation charge cutoff
   NELM   =    200;   NELMIN=  6; NELMDL= -7     # of ELM steps 
   EDIFF  = 0.1E-06   stopping-criterion for ELM
   LREAL  =      F    real-space projection
   NLSPLINE    = F    spline interpolate recip. space projectors
   LCOMPAT=      F    compatible to vasp.4.4
   GGA_COMPAT  = T    GGA compatible to vasp.4.4-vasp.4.6
   LMAXPAW     = -100 max onsite density
   LMAXMIX     =    4 max onsite mixed and CHGCAR
   VOSKOWN=      1    Vosko Wilk Nusair interpolation
   ROPT   =    0.00000   0.00000   0.00000
 Ionic relaxation
   EDIFFG = -.1E-02   stopping-criterion for IOM
   NSW    =      0    number of steps for IOM
   NBLOCK =      1;   KBLOCK =      1    inner block; outer block 
   IBRION =     -1    ionic relax: 0-MD 1-quasi-New 2-CG
   NFREE  =      0    steps in history (QN), initial steepest desc. (CG)
   ISIF   =      3    stress and relaxation
   IWAVPR =     10    prediction:  0-non 1-charg 2-wave 3-comb
   ISYM   =     -1    0-nonsym 1-usesym 2-fastsym
   LCORR  =      T    Harris-Foulkes like correction to forces

   POTIM  = 0.5000    time-step for ionic-motion
   TEIN   =    0.0    initial temperature
   TEBEG  =    0.0;   TEEND  =   0.0 temperature during run
   SMASS  =  -3.00    Nose mass-parameter (am)
   estimated Nose-frequenzy (Omega)   =  0.10E-29 period in steps = 0.13E+47 mass=  -0.269E-27a.u.
   SCALEE = 1.0000    scale energy and forces
   NPACO  =    256;   APACO  = 16.0  distance and # of slots for P.C.
   PSTRESS=    0.0 pullay stress

  Mass of Ions in am
   POMASS =  52.00 32.07127.60
  Ionic Valenz
   ZVAL   =  12.00  6.00  6.00
  Atomic Wigner-Seitz radii
   RWIGS  =  -1.00 -1.00 -1.00
  virtual crystal weights 
   VCA    =   1.00  1.00  1.00
   NELECT =      24.0000    total number of electrons
   NUPDOWN=      -1.0000    fix difference up-down

 DOS related values:
   EMIN   =  10.00;   EMAX   =-10.00  energy-range for DOS
   EFERMI =   0.00
   ISMEAR =    -5;   SIGMA  =   0.05  broadening in eV -4-tet -1-fermi 0-gaus

 Electronic relaxation 2 (details)
   IALGO  =     68    algorithm
   LDIAG  =      T    sub-space diagonalisation (order eigenvalues)
   LSUBROT=      F    optimize rotation matrix (better conditioning)
   TURBO    =      0    0=normal 1=particle mesh
[...]
  0.000   0.000   0.000   0.000   0.000   0.000   0.000   0.000   0.000   0.000   0.000   0.000   0.000   0.000   0.000   0.000
  0.000   0.000   0.000   0.000   0.000   0.000   0.000   0.000   0.000   0.000   0.000   0.000   0.000   0.000   0.000   0.000
  0.000   0.000   0.000   0.000   0.000   0.000   0.000   0.000   0.000   0.000   0.000   0.000   0.000   0.000   0.000   0.000
  0.000   0.000   0.000   0.000   0.000   0.000   0.000   0.000   0.000   0.000   0.000   0.000   0.000   0.000   0.000   0.000
  0.000   0.000   0.000   0.000   0.000   0.000   0.000   0.000   0.000   0.000   0.000   0.000   0.000   0.000   0.000   0.000
  0.000   0.000   0.000   0.000   0.000   0.000   0.000   0.000   0.000   0.000   0.000   0.000   0.000   0.000   0.000   0.000
  0.000   0.000   0.000   0.000   0.000   0.000   0.000   0.000   0.000   0.000   0.000   0.000   0.000   0.000   0.000   0.000
 total augmentation occupancy for first ion, spin component:           3
  0.000   0.000   0.000   0.000   0.000   0.000   0.000   0.000   0.000   0.000   0.000   0.000   0.000   0.000   0.000   0.000
  0.000   0.000   0.000   0.000   0.000   0.000   0.000   0.000   0.000   0.000   0.000   0.000   0.000   0.000   0.000   0.000
  0.000   0.000   0.000   0.000   0.000   0.000   0.000   0.000   0.000   0.000   0.000   0.000   0.000   0.000   0.000   0.000
  0.000   0.000   0.000   0.000   0.000   0.000   0.000   0.000   0.000   0.000   0.000   0.000   0.000   0.000   0.000   0.000
  0.000   0.000   0.000   0.000   0.000   0.000   0.000   0.000   0.000   0.000   0.000   0.000   0.000   0.000   0.000   0.000
  0.000   0.000   0.000   0.000   0.000   0.000   0.000   0.000   0.000   0.000   0.000   0.000   0.000   0.000   0.000   0.000
  0.000   0.000   0.000   0.000   0.000   0.000   0.000   0.000   0.000   0.000   0.000   0.000   0.000   0.000   0.000   0.000
  0.000   0.000   0.000   0.000   0.000   0.000   0.000   0.000   0.000   0.000   0.000   0.000   0.000   0.000   0.000   0.000
  0.000   0.000   0.000   0.000   0.000   0.000   0.000   0.000   0.000   0.000   0.000   0.000   0.000   0.000   0.000   0.000
  0.000   0.000   0.000   0.000   0.000   0.000   0.000   0.000   0.000   0.000   0.000   0.000   0.000   0.000   0.000   0.000
  0.000   0.000   0.000   0.000   0.000   0.000   0.000   0.000   0.000   0.000   0.000   0.000   0.000   0.000   0.000   0.000
  0.000   0.000   0.000   0.000   0.000   0.000   0.000   0.000   0.000   0.000   0.000   0.000   0.000   0.000   0.000   0.000
  0.000   0.000   0.000   0.000   0.000   0.000   0.000   0.000   0.000   0.000   0.000   0.000   0.000   0.000   0.000   0.000
  0.000   0.000   0.000   0.000   0.000   0.000   0.000   0.000   0.000   0.000   0.000   0.000   0.000   0.000   0.000   0.000
  0.000   0.000   0.000   0.000   0.000   0.000   0.000   0.000   0.000   0.000   0.000   0.000   0.000   0.000   0.000   0.000
  0.000   0.000   0.000   0.000   0.000   0.000   0.000   0.000   0.000   0.000   0.000   0.000   0.000   0.000   0.000   0.000
  0.000   0.000   0.000   0.000   0.000   0.000   0.000   0.000   0.000   0.000   0.000   0.000   0.000   0.000   0.000   0.000
  0.000   0.000   0.000   0.000   0.000   0.000   0.000   0.000   0.000   0.000   0.000   0.000   0.000   0.000   0.000   0.000
 total augmentation occupancy for first ion, spin component:           4
  0.833   0.000   0.000   0.000   0.000   0.000   0.000   0.000   0.000   0.000   0.000   0.000   0.000   0.000   0.000   0.000
  0.000   0.833   0.000   0.000   0.000   0.000   0.000   0.000   0.000   0.000   0.000   0.000   0.000   0.000   0.000   0.000
  0.000   0.000   0.833   0.000   0.000   0.000   0.000   0.000   0.000   0.000   0.000   0.000   0.000   0.000   0.000   0.000
  0.000   0.000   0.000   0.000   0.000   0.000   0.000   0.000   0.000   0.000   0.000   0.000   0.000   0.000   0.000   0.000
  0.000   0.000   0.000   0.000   0.000   0.000   0.000   0.000   0.000   0.000   0.000   0.000   0.000   0.000   0.000   0.000
  0.000   0.000   0.000   0.000   0.000   0.000   0.000   0.000   0.000   0.000   0.000   0.000   0.000   0.000   0.000   0.000
  0.000   0.000   0.000   0.000   0.000   0.000   0.417   0.000   0.000   0.000   0.000   0.000   0.000   0.000   0.000   0.000
  0.000   0.000   0.000   0.000   0.000   0.000   0.000   0.417   0.000   0.000   0.000   0.000   0.000   0.000   0.000   0.000
  0.000   0.000   0.000   0.000   0.000   0.000   0.000   0.000   0.417   0.000   0.000   0.000   0.000   0.000   0.000   0.000
  0.000   0.000   0.000   0.000   0.000   0.000   0.000   0.000   0.000   0.417   0.000   0.000   0.000   0.000   0.000   0.000
  0.000   0.000   0.000   0.000   0.000   0.000   0.000   0.000   0.000   0.000   0.417   0.000   0.000   0.000   0.000   0.000
  0.000   0.000   0.000   0.000   0.000   0.000   0.000   0.000   0.000   0.000   0.000   0.000   0.000   0.000   0.000   0.000
  0.000   0.000   0.000   0.000   0.000   0.000   0.000   0.000   0.000   0.000   0.000   0.000   0.000   0.000   0.000   0.000
  0.000   0.000   0.000   0.000   0.000   0.000   0.000   0.000   0.000   0.000   0.000   0.000   0.000   0.000   0.000   0.000
  0.000   0.000   0.000   0.000   0.000   0.000   0.000   0.000   0.000   0.000   0.000   0.000   0.000   0.000   0.000   0.000
  0.000   0.000   0.000   0.000   0.000   0.000   0.000   0.000   0.000   0.000   0.000   0.000   0.000   0.000   0.000   0.000
  0.000   0.000   0.000   0.000   0.000   0.000   0.000   0.000   0.000   0.000   0.000   0.000   0.000   0.000   0.000   0.000
  0.000   0.000   0.000   0.000   0.000   0.000   0.000   0.000   0.000   0.000   0.000   0.000   0.000   0.000   0.000   0.000


------------------------ aborting loop because EDIFF is reached ----------------------------------------





 total charge

# of ion       s       p       d       tot
------------------------------------------
    1        0.290   6.254   4.090  10.634
    2        1.353   2.369   0.000   3.721
    3        1.407   1.908   0.038   3.353
--------------------------------------------------
tot          3.050  10.531   4.129  17.709



 magnetization (x)

# of ion       s       p       d       tot
------------------------------------------
    1        0.000   0.000   0.000   0.000
    2       -0.000  -0.000   0.000  -0.000
    3        0.000  -0.000   0.000  -0.000
--------------------------------------------------
tot          0.000  -0.000   0.000   0.000



 magnetization (y)

# of ion       s       p       d       tot
------------------------------------------
    1        0.000   0.000  -0.000  -0.000
    2        0.000   0.000   0.000   0.000
    3       -0.000   0.000  -0.000   0.000
--------------------------------------------------
tot          0.000   0.000  -0.000  -0.000



 magnetization (z)

# of ion       s       p       d       tot
------------------------------------------
    1        0.040   0.026   3.067   3.133
    2       -0.008  -0.197   0.000  -0.205
    3       -0.002  -0.126   0.001  -0.127
--------------------------------------------------
tot          0.030  -0.297   3.068   2.801
 
    CHARGE:  cpu time    0.9840: real time    0.9841
    FORLOC:  cpu time    0.0021: real time    0.0021
    FORNL :  cpu time    1.9861: real time    1.9864
    STRESS:  cpu time    5.0992: real time    5.1004
    FORCOR:  cpu time    0.0923: real time    0.0924
    FORHAR:  cpu time    0.0093: real time    0.0093
    OFIELD:  cpu time    0.0004: real time    0.0004

 ---------------------------------------------------------------------------------------------

         DFTD3 V3.0 Rev 1        
 IVDW         = 12
 DF pbe       
 parameters
 VDW_S6       =    1.0000
 VDW_S8       =    0.7875
 VDW_A1       =    0.4289
 VDW_A2       =    4.4407
 k1-k3        =   16.0000    1.3333   -4.0000
 VDW_RADIUS   =   50.2022 A
 VDW_CNRADIUS =   21.1671 A
 Edisp (eV)   -1.01359

 E6    (eV) :    -0.5536
 E8    (eV) :    -0.4600
 % E8        : 45.38
    FORVDW:  cpu time    0.0096: real time    0.0097

  FORCE on cell =-STRESS in cart. coord.  units (eV):
  Direction    XX          YY          ZZ          XY          YZ          ZX
  --------------------------------------------------------------------------------------
  Alpha Z     8.85200     8.85200     8.85200
  Ewald    9438.56788  9438.56739-10522.84153    -0.00020    -0.00018     0.00009
  Hartree  9839.19631  9839.19629 -9526.90705     0.00007    -0.00010     0.00011
  E(xc)    -111.04256  -111.04259  -111.67936    -0.00002     0.00000    -0.00001
  Local  -19645.10959-19645.10959 19674.77776    -0.00031     0.00033    -0.00028
  n-local   148.68455   148.68454   152.42551     0.00000    -0.00001    -0.00002
  augment    46.96142    46.96166    45.90680     0.00021    -0.00002     0.00006
  Kinetic   274.98319   274.98371   279.89346     0.00046    -0.00012     0.00020
  Fock        0.00000     0.00000     0.00000     0.00000     0.00000     0.00000
  vdW        -1.02364    -1.02364    -0.38562    -0.00000     0.00000     0.00000
  -------------------------------------------------------------------------------------
  Total       0.06955     0.06978     0.04198     0.00021    -0.00010     0.00015
  in kB       0.35250     0.35365     0.21276     0.00106    -0.00051     0.00078
  external pressure =        0.31 kB  Pullay stress =        0.00 kB


 VOLUME and BASIS-vectors are now :
 -----------------------------------------------------------------------------
  energy-cutoff  :      330.00
  volume of cell :      316.13
      direct lattice vectors                 reciprocal lattice vectors
     3.427808124  0.000000218  0.000000000     0.291731604  0.168431348  0.000000000
    -1.713904293  2.968568820  0.000000000    -0.000000021  0.336862651 -0.000000000
    -0.000000000  0.000000000 31.066888743     0.000000000  0.000000000  0.032188611

  length of vectors
     3.427808124  3.427808158 31.066888743     0.336862655  0.336862651  0.032188611


 FORCES acting on ions
    electron-ion (+dipol)            ewald-force                    non-local-force                 convergence-correction
 -----------------------------------------------------------------------------------------------
   -.128E-03 0.284E-04 0.471E+02   0.222E-03 -.742E-04 -.528E+02   0.442E-04 -.141E-04 0.570E+01   -.220E-04 -.309E-05 -.460E-01
   0.212E-03 -.130E-03 0.727E+03   -.165E-03 0.100E-03 -.731E+03   0.107E-03 -.599E-04 0.374E+01   -.132E-05 0.119E-05 -.417E-02
   0.270E-04 0.206E-04 -.779E+03   -.570E-04 -.260E-04 0.784E+03   0.365E-04 -.103E-04 -.438E+01   0.151E-04 0.347E-07 0.817E-02
 -----------------------------------------------------------------------------------------------
   0.111E-03 -.810E-04 -.502E+01   -.985E-14 -.116E-13 0.114E-12   0.188E-03 -.844E-04 0.506E+01   -.822E-05 -.187E-05 -.420E-01
 
 
 POSITION                                       TOTAL-FORCE (eV/Angst)
 -----------------------------------------------------------------------------------
     -0.00000      0.00000      3.39361         0.000020     -0.000007     -0.031561
      1.71391      0.98952      2.14694         0.000055     -0.000033     -0.001232
      0.00000      1.97905      5.43024        -0.000075      0.000040      0.032793
 -----------------------------------------------------------------------------------
    total drift:                                0.000290     -0.000167     -0.003095


--------------------------------------------------------------------------------------------------------



  FREE ENERGIE OF THE ION-ELECTRON SYSTEM (eV)
  ---------------------------------------------------
  free  energy   TOTEN  =       -17.03987011 eV

  energy  without entropy=      -17.03987011  energy(sigma->0) =      -17.03987011
 


--------------------------------------------------------------------------------------------------------


    POTLOK:  cpu time    0.8967: real time    0.8972


--------------------------------------------------------------------------------------------------------


 writing wavefunctions
     LOOP+:  cpu time  459.1289: real time  502.1909
 -----------------------------------------------------------------------------
|                                                                             |
|           W    W    AA    RRRRR   N    N  II  N    N   GGGG   !!!           |
|           W    W   A  A   R    R  NN   N  II  NN   N  G    G  !!!           |
|           W    W  A    A  R    R  N N  N  II  N N  N  G       !!!           |
|           W WW W  AAAAAA  RRRRR   N  N N  II  N  N N  G  GGG   !            |
|           WW  WW  A    A  R   R   N   NN  II  N   NN  G    G                |
|           W    W  A    A  R    R  N    N  II  N    N   GGGG   !!!           |
|                                                                             |
|     Tetrahedron method does not include variations of the Fermi             |
|     occupations, so forces and stress will be inaccurate. We suggest        |
|     using a different smearing scheme ISMEAR = 1 or 2 for metals in         |
|     relaxations.                                                            |
|                                                                             |
 -----------------------------------------------------------------------------

 vacuum level on the upper side and lower side of the slab         1.713         2.998
    4ORBIT:  cpu time    0.0000: real time    0.0000

 Spin-Orbit-Coupling matrix elements

 Ion:    1  E_soc:     -0.0220289
 l=   1
     0.0000000    -0.0031443    -0.0030920
    -0.0031443     0.0000000    -0.0031443
    -0.0030920    -0.0031443     0.0000000
 l=   2
     0.0000000    -0.0001166     0.0000000    -0.0001166    -0.0002642
    -0.0001166     0.0000000    -0.0003925    -0.0001183    -0.0001166
     0.0000000    -0.0003925     0.0000000    -0.0003925     0.0000000
    -0.0001166    -0.0001183    -0.0003925     0.0000000    -0.0001165
    -0.0002642    -0.0001166     0.0000000    -0.0001165     0.0000000
 l=   3
     0.0000000     0.0000000     0.0000000     0.0000000     0.0000000     0.0000000     0.0000000
     0.0000000     0.0000000     0.0000000     0.0000000     0.0000000     0.0000000     0.0000000
     0.0000000     0.0000000     0.0000000     0.0000000     0.0000000     0.0000000     0.0000000
     0.0000000     0.0000000     0.0000000     0.0000000     0.0000000     0.0000000     0.0000000
     0.0000000     0.0000000     0.0000000     0.0000000     0.0000000     0.0000000     0.0000000
     0.0000000     0.0000000     0.0000000     0.0000000     0.0000000     0.0000000     0.0000000
     0.0000000     0.0000000     0.0000000     0.0000000     0.0000000     0.0000000     0.0000000

 Ion:    2  E_soc:     -0.0022278
 l=   1
     0.0000000    -0.0004090    -0.0002959
    -0.0004090     0.0000000    -0.0004090
    -0.0002959    -0.0004090     0.0000000
 l=   2
     0.0000000     0.0000000     0.0000000     0.0000000     0.0000000
     0.0000000     0.0000000     0.0000000     0.0000000     0.0000000
     0.0000000     0.0000000     0.0000000     0.0000000     0.0000000
     0.0000000     0.0000000     0.0000000     0.0000000     0.0000000
     0.0000000     0.0000000     0.0000000     0.0000000     0.0000000
 l=   3
     0.0000000     0.0000000     0.0000000     0.0000000     0.0000000     0.0000000     0.0000000
     0.0000000     0.0000000     0.0000000     0.0000000     0.0000000     0.0000000     0.0000000
     0.0000000     0.0000000     0.0000000     0.0000000     0.0000000     0.0000000     0.0000000
     0.0000000     0.0000000     0.0000000     0.0000000     0.0000000     0.0000000     0.0000000
     0.0000000     0.0000000     0.0000000     0.0000000     0.0000000     0.0000000     0.0000000
     0.0000000     0.0000000     0.0000000     0.0000000     0.0000000     0.0000000     0.0000000
     0.0000000     0.0000000     0.0000000     0.0000000     0.0000000     0.0000000     0.0000000

 Ion:    3  E_soc:     -0.2218052
 l=   1
     0.0000000    -0.0362914    -0.0379857
    -0.0362914     0.0000000    -0.0362914
    -0.0379857    -0.0362914     0.0000000
 l=   2
     0.0000000    -0.0000233     0.0000000    -0.0000233    -0.0001745
    -0.0000233     0.0000000    -0.0000338     0.0000014    -0.0000233
     0.0000000    -0.0000338     0.0000000    -0.0000338     0.0000000
    -0.0000233     0.0000014    -0.0000338     0.0000000    -0.0000233
    -0.0001745    -0.0000233     0.0000000    -0.0000233     0.0000000
 l=   3
     0.0000000     0.0000000     0.0000000     0.0000000     0.0000000     0.0000000     0.0000000
     0.0000000     0.0000000     0.0000000     0.0000000     0.0000000     0.0000000     0.0000000
     0.0000000     0.0000000     0.0000000     0.0000000     0.0000000     0.0000000     0.0000000
     0.0000000     0.0000000     0.0000000     0.0000000     0.0000000     0.0000000     0.0000000
     0.0000000     0.0000000     0.0000000     0.0000000     0.0000000     0.0000000     0.0000000
     0.0000000     0.0000000     0.0000000     0.0000000     0.0000000     0.0000000     0.0000000
     0.0000000     0.0000000     0.0000000     0.0000000     0.0000000     0.0000000     0.0000000



 total charge

# of ion       s       p       d       tot
------------------------------------------
    1        0.290   6.254   4.090  10.634
    2        1.353   2.369   0.000   3.721
    3        1.407   1.908   0.038   3.353
--------------------------------------------------
tot          3.050  10.531   4.129  17.709



 magnetization (x)

# of ion       s       p       d       tot
------------------------------------------
    1        0.000   0.000   0.000   0.000
    2       -0.000  -0.000   0.000  -0.000
    3        0.000  -0.000   0.000  -0.000
--------------------------------------------------
tot          0.000  -0.000   0.000   0.000



 magnetization (y)

# of ion       s       p       d       tot
------------------------------------------
    1        0.000   0.000  -0.000  -0.000
    2        0.000   0.000   0.000   0.000
    3       -0.000   0.000  -0.000   0.000
--------------------------------------------------
tot          0.000   0.000  -0.000  -0.000



 magnetization (z)

# of ion       s       p       d       tot
------------------------------------------
    1        0.040   0.026   3.067   3.133
    2       -0.008  -0.197   0.000  -0.205
    3       -0.002  -0.126   0.001  -0.127
--------------------------------------------------
tot          0.030  -0.297   3.068   2.801
 
 BZINTS: Fermi energy:   -3.024245;   24.000000 electrons
         Band energy:-0.411946E+03;  BLOECHL correction:   -0.008571
 BZINTS: Fermi energy:   -3.024245;   24.000000 electrons
         Band energy:-0.411946E+03;  BLOECHL correction:   -0.008571
 BZINTS: Fermi energy:   -3.024245;   24.000000 electrons
         Band energy:-0.411946E+03;  BLOECHL correction:   -0.008571
 BZINTS: Fermi energy:   -3.024245;   24.000000 electrons
         Band energy:-0.411946E+03;  BLOECHL correction:   -0.008571

 total amount of memory used by VASP MPI-rank0   278056. kBytes
=======================================================================

   base      :      30000. kBytes
   nonl-proj :     149066. kBytes
   fftplans  :       1362. kBytes
   grid      :       5406. kBytes
   one-center:         62. kBytes
   wavefun   :      92160. kBytes
 
  
  
 General timing and accounting informations for this job:
 ========================================================
  
                  Total CPU time used (sec):      543.411
                            User time (sec):      539.598
                          System time (sec):        3.814
                         Elapsed time (sec):      590.911
  
                   Maximum memory used (kb):      395528.
                   Average memory used (kb):          N/A
  
                          Minor page faults:       105339
                          Major page faults:            0
                 Voluntary context switches:         1801
