 running on   64 total cores
 distrk:  each k-point on   64 cores,    1 groups
 distr:  one band on    8 cores,    8 groups
 vasp.6.2.1 16May21 (build May 20 2021 13:04:43) complex                        
  
 POSCAR found type information on POSCAR CrS Te
 POSCAR found :  3 types and       3 ions
 Reading from existing POTCAR
 scaLAPACK will be used
 Reading from existing POTCAR
 LDA part: xc-table for Pade appr. of Perdew
 WARNING: stress and forces are not correct
 POSCAR, INCAR and KPOINTS ok, starting setup
 FFT: planning ...
 WAVECAR not read
 reading imaginary part of occupancies ...
 charge-density read from file: unknown                                 
 reading imaginary part of occupancies ...
 magnetization density read from file 1
 reading imaginary part of occupancies ...
 magnetization density read from file 2
 reading imaginary part of occupancies ...
 magnetization density read from file 3
 entering main loop
       N       E                     dE             d eps       ncg     rms          rms(c)
DAV:   1     0.120721163179E+03    0.12072E+03   -0.82789E+03 22048   0.377E+02
DAV:   2    -0.561640774395E+01   -0.12634E+03   -0.11934E+03 24200   0.132E+02
DAV:   3    -0.157352222190E+02   -0.10119E+02   -0.98418E+01 24584   0.333E+01
DAV:   4    -0.160333613014E+02   -0.29814E+00   -0.29669E+00 26112   0.599E+00
DAV:   5    -0.160407920226E+02   -0.74307E-02   -0.73487E-02 29136   0.906E-01
DAV:   6    -0.160410813969E+02   -0.28937E-03   -0.28884E-03 28496   0.155E-01
DAV:   7    -0.160410876048E+02   -0.62078E-05   -0.61980E-05 27712   0.199E-02
RMM:   8    -0.160410876944E+02   -0.89641E-07   -0.89798E-07 22233   0.285E-03
   1 F= -.17054682E+02 E0= -.17054670E+02  d E =-.473906E-04  mag=     0.0000    -0.0000     2.8255
 writing procar
2600791.summer.cluster
