unknown system                          
           1
     3.427808    0.000000    0.000000
    -1.713904    2.968569    0.000000
    -0.000000    0.000000   31.066889
   Cr   S    Te
     1     1     1
Direct configuration=     1
   0.00000000  0.00000000  0.10923557
   0.66666700  0.33333300  0.06910715
   0.33333417  0.66666700  0.17479203
