   3   3   1   0
  0.1053756E+03  0.3427808E-09  0.3427808E-09  0.3106689E-08  0.5000000E-15
  1.000000000000000E-004
  CAR 
 unknown system                          
     11.50311948    -50.42234801 2001     -2.54822372      1.00000000
    -50.422  0.0000E+00  0.0000E+00
    -50.391  0.0000E+00  0.0000E+00
    -50.360  0.0000E+00  0.0000E+00
    -50.329  0.0000E+00  0.0000E+00
    -50.298  0.0000E+00  0.0000E+00
    -50.268  0.0000E+00  0.0000E+00
    -50.237  0.0000E+00  0.0000E+00
    -50.206  0.0000E+00  0.0000E+00
    -50.175  0.0000E+00  0.0000E+00
    -50.144  0.0000E+00  0.0000E+00
    -50.113  0.0000E+00  0.0000E+00
    -50.082  0.0000E+00  0.0000E+00
    -50.051  0.0000E+00  0.0000E+00
    -50.020  0.0000E+00  0.0000E+00
    -49.989  0.0000E+00  0.0000E+00
    -49.958  0.0000E+00  0.0000E+00
    -49.927  0.0000E+00  0.0000E+00
    -49.896  0.0000E+00  0.0000E+00
    -49.865  0.0000E+00  0.0000E+00
    -49.834  0.0000E+00  0.0000E+00
    -49.803  0.0000E+00  0.0000E+00
    -49.772  0.0000E+00  0.0000E+00
    -49.741  0.0000E+00  0.0000E+00
    -49.710  0.0000E+00  0.0000E+00
    -49.679  0.0000E+00  0.0000E+00
    -49.648  0.0000E+00  0.0000E+00
    -49.617  0.0000E+00  0.0000E+00
    -49.586  0.0000E+00  0.0000E+00
    -49.555  0.0000E+00  0.0000E+00
    -49.524  0.0000E+00  0.0000E+00
    -49.493  0.0000E+00  0.0000E+00
    -49.463  0.0000E+00  0.0000E+00
    -49.432  0.0000E+00  0.0000E+00
    -49.401  0.0000E+00  0.0000E+00
    -49.370  0.0000E+00  0.0000E+00
    -49.339  0.0000E+00  0.0000E+00
    -49.308  0.0000E+00  0.0000E+00
    -49.277  0.0000E+00  0.0000E+00
    -49.246  0.0000E+00  0.0000E+00
    -49.215  0.0000E+00  0.0000E+00
    -49.184  0.0000E+00  0.0000E+00
    -49.153  0.0000E+00  0.0000E+00
    -49.122  0.0000E+00  0.0000E+00
    -49.091  0.0000E+00  0.0000E+00
    -49.060  0.0000E+00  0.0000E+00
    -49.029  0.0000E+00  0.0000E+00
    -48.998  0.0000E+00  0.0000E+00
    -48.967  0.0000E+00  0.0000E+00
    -48.936  0.0000E+00  0.0000E+00
    -48.905  0.0000E+00  0.0000E+00
    -48.874  0.0000E+00  0.0000E+00
    -48.843  0.0000E+00  0.0000E+00
    -48.812  0.0000E+00  0.0000E+00
    -48.781  0.0000E+00  0.0000E+00
    -48.750  0.0000E+00  0.0000E+00
    -48.719  0.0000E+00  0.0000E+00
    -48.688  0.0000E+00  0.0000E+00
    -48.657  0.0000E+00  0.0000E+00
    -48.627  0.0000E+00  0.0000E+00
    -48.596  0.0000E+00  0.0000E+00
    -48.565  0.0000E+00  0.0000E+00
    -48.534  0.0000E+00  0.0000E+00
    -48.503  0.0000E+00  0.0000E+00
    -48.472  0.0000E+00  0.0000E+00
    -48.441  0.0000E+00  0.0000E+00
    -48.410  0.0000E+00  0.0000E+00
    -48.379  0.0000E+00  0.0000E+00
    -48.348  0.0000E+00  0.0000E+00
    -48.317  0.0000E+00  0.0000E+00
    -48.286  0.0000E+00  0.0000E+00
    -48.255  0.0000E+00  0.0000E+00
    -48.224  0.0000E+00  0.0000E+00
    -48.193  0.0000E+00  0.0000E+00
    -48.162  0.0000E+00  0.0000E+00
    -48.131  0.0000E+00  0.0000E+00
    -48.100  0.0000E+00  0.0000E+00
    -48.069  0.0000E+00  0.0000E+00
    -48.038  0.1592E-29  0.4929E-31
    -48.007  0.1297E-24  0.4017E-26
    -47.976  0.1429E-20  0.4424E-22
    -47.945  0.7155E-17  0.2216E-18
    -47.914  0.1621E-13  0.5022E-15
    -47.883  0.1655E-10  0.5129E-12
    -47.852  0.7508E-08  0.2330E-09
    -47.821  0.1493E-05  0.4645E-07
    -47.791  0.1265E-03  0.3963E-05
    -47.760  0.4317E-02  0.1376E-03
    -47.729  0.5087E-01  0.1713E-02
    -47.698  0.7375E-01  0.3996E-02
    -47.667 -0.9303E+00 -0.2481E-01
    -47.636  0.3643E+00 -0.1353E-01
    -47.605  0.1312E+02  0.3926E+00
    -47.574  0.1720E+02  0.9253E+00
    -47.543  0.3695E+01  0.1040E+01
    -47.512 -0.1269E+01  0.1000E+01
    -47.481 -0.1099E+00  0.9970E+00
    -47.450  0.8395E-01  0.9996E+00
    -47.419  0.1344E-01  0.1000E+01
    -47.388  0.2337E-01  0.1001E+01
    -47.357  0.1175E+00  0.1004E+01
    -47.326 -0.3816E+00  0.9926E+00
    -47.295 -0.1406E+01  0.9490E+00
    -47.264  0.7855E+01  0.1192E+01
    -47.233  0.1961E+02  0.1799E+01
    -47.202  0.8118E+01  0.2051E+01
    -47.171 -0.1378E+01  0.2008E+01
    -47.140 -0.4041E+00  0.1996E+01
    -47.109  0.1185E+00  0.1999E+01
    -47.078  0.2372E-01  0.2000E+01
    -47.047  0.1324E-02  0.2000E+01
    -47.016  0.4103E-02  0.2000E+01
    -46.985  0.4921E-01  0.2002E+01
    -46.955  0.7803E-01  0.2004E+01
    -46.924 -0.9026E+00  0.1976E+01
    -46.893  0.2481E+00  0.1984E+01
    -46.862  0.1284E+02  0.2381E+01
    -46.831  0.1733E+02  0.2918E+01
    -46.800  0.3941E+01  0.3040E+01
    -46.769 -0.1263E+01  0.3001E+01
    -46.738 -0.1276E+00  0.2997E+01
    -46.707  0.8532E-01  0.3000E+01
    -46.676  0.1305E-01  0.3000E+01
    -46.645  0.6059E-03  0.3000E+01
    -46.614  0.1109E-04  0.3000E+01
    -46.583  0.8639E-07  0.3000E+01
    -46.552  0.2955E-09  0.3000E+01
    -46.521  0.4514E-12  0.3000E+01
    -46.490  0.1172E-15  0.3000E+01
    -46.459  0.0000E+00  0.3000E+01
    -46.428  0.0000E+00  0.3000E+01
    -46.397  0.0000E+00  0.3000E+01
    -46.366  0.0000E+00  0.3000E+01
    -46.335  0.0000E+00  0.3000E+01
    -46.304  0.0000E+00  0.3000E+01
    -46.273  0.0000E+00  0.3000E+01
    -46.242  0.0000E+00  0.3000E+01
    -46.211  0.0000E+00  0.3000E+01
    -46.180  0.0000E+00  0.3000E+01
    -46.149  0.0000E+00  0.3000E+01
    -46.119  0.0000E+00  0.3000E+01
    -46.088  0.0000E+00  0.3000E+01
    -46.057  0.0000E+00  0.3000E+01
    -46.026  0.0000E+00  0.3000E+01
    -45.995  0.0000E+00  0.3000E+01
    -45.964  0.0000E+00  0.3000E+01
    -45.933  0.0000E+00  0.3000E+01
    -45.902  0.0000E+00  0.3000E+01
    -45.871  0.0000E+00  0.3000E+01
    -45.840  0.0000E+00  0.3000E+01
    -45.809  0.0000E+00  0.3000E+01
    -45.778  0.0000E+00  0.3000E+01
    -45.747  0.0000E+00  0.3000E+01
    -45.716  0.0000E+00  0.3000E+01
    -45.685  0.0000E+00  0.3000E+01
    -45.654  0.0000E+00  0.3000E+01
    -45.623  0.0000E+00  0.3000E+01
    -45.592  0.0000E+00  0.3000E+01
    -45.561  0.0000E+00  0.3000E+01
    -45.530  0.0000E+00  0.3000E+01
    -45.499  0.0000E+00  0.3000E+01
    -45.468  0.0000E+00  0.3000E+01
    -45.437  0.0000E+00  0.3000E+01
    -45.406  0.0000E+00  0.3000E+01
    -45.375  0.0000E+00  0.3000E+01
    -45.344  0.0000E+00  0.3000E+01
    -45.313  0.0000E+00  0.3000E+01
    -45.283  0.0000E+00  0.3000E+01
    -45.252  0.0000E+00  0.3000E+01
    -45.221  0.0000E+00  0.3000E+01
    -45.190  0.0000E+00  0.3000E+01
    -45.159  0.0000E+00  0.3000E+01
    -45.128  0.0000E+00  0.3000E+01
    -45.097  0.0000E+00  0.3000E+01
    -45.066  0.0000E+00  0.3000E+01
    -45.035  0.0000E+00  0.3000E+01
    -45.004  0.0000E+00  0.3000E+01
    -44.973  0.0000E+00  0.3000E+01
    -44.942  0.0000E+00  0.3000E+01
    -44.911  0.0000E+00  0.3000E+01
    -44.880  0.0000E+00  0.3000E+01
    -44.849  0.0000E+00  0.3000E+01
    -44.818  0.0000E+00  0.3000E+01
    -44.787  0.0000E+00  0.3000E+01
    -44.756  0.1696E-28  0.3000E+01
    -44.725  0.3968E-24  0.3000E+01
    -44.694  0.4005E-20  0.3000E+01
    -44.663  0.1835E-16  0.3000E+01
    -44.632  0.3799E-13  0.3000E+01
    -44.601  0.3535E-10  0.3000E+01
    -44.570  0.1458E-07  0.3000E+01
    -44.539  0.2625E-05  0.3000E+01
    -44.508  0.2002E-03  0.3000E+01
    -44.478  0.6076E-02  0.3000E+01
    -44.447  0.6135E-01  0.3002E+01
    -44.416  0.3372E-01  0.3003E+01
    -44.385 -0.1077E+01  0.2970E+01
    -44.354  0.1248E+01  0.3008E+01
    -44.323  0.1446E+02  0.3456E+01
    -44.292  0.1603E+02  0.3952E+01
    -44.261  0.2672E+01  0.4035E+01
    -44.230 -0.1161E+01  0.3999E+01
    -44.199 -0.5503E-01  0.3997E+01
    -44.168  0.7388E-01  0.4000E+01
    -44.137  0.1012E-01  0.4000E+01
    -44.106  0.6011E-02  0.4000E+01
    -44.075  0.6298E-01  0.4002E+01
    -44.044  0.6018E-01  0.4004E+01
    -44.013 -0.1179E+01  0.3967E+01
    -43.982  0.1070E+01  0.4001E+01
    -43.951  0.1556E+02  0.4483E+01
    -43.920  0.1629E+02  0.4987E+01
    -43.889  0.1583E+01  0.5036E+01
    -43.858 -0.1219E+01  0.4998E+01
    -43.827  0.1089E+00  0.5001E+01
    -43.796 -0.7530E+00  0.4978E+01
    -43.765  0.2165E+00  0.4985E+01
    -43.734  0.1182E+02  0.5351E+01
    -43.703  0.1712E+02  0.5881E+01
    -43.672  0.5024E+01  0.6036E+01
    -43.642 -0.1051E+01  0.6004E+01
    -43.611 -0.2292E+00  0.5997E+01
    -43.580  0.8438E-01  0.5999E+01
    -43.549  0.1758E-01  0.6000E+01
    -43.518  0.1014E-02  0.6000E+01
    -43.487  0.2260E-04  0.6000E+01
    -43.456  0.2121E-06  0.6000E+01
    -43.425  0.8677E-09  0.6000E+01
    -43.394  0.1576E-11  0.6000E+01
    -43.363  0.1148E-14  0.6000E+01
    -43.332  0.0000E+00  0.6000E+01
    -43.301  0.0000E+00  0.6000E+01
    -43.270  0.0000E+00  0.6000E+01
    -43.239  0.0000E+00  0.6000E+01
    -43.208  0.0000E+00  0.6000E+01
    -43.177  0.0000E+00  0.6000E+01
    -43.146  0.0000E+00  0.6000E+01
    -43.115  0.0000E+00  0.6000E+01
    -43.084  0.0000E+00  0.6000E+01
    -43.053  0.0000E+00  0.6000E+01
    -43.022  0.0000E+00  0.6000E+01
    -42.991  0.0000E+00  0.6000E+01
    -42.960  0.0000E+00  0.6000E+01
    -42.929  0.0000E+00  0.6000E+01
    -42.898  0.0000E+00  0.6000E+01
    -42.867  0.0000E+00  0.6000E+01
    -42.836  0.0000E+00  0.6000E+01
    -42.806  0.0000E+00  0.6000E+01
    -42.775  0.0000E+00  0.6000E+01
    -42.744  0.0000E+00  0.6000E+01
    -42.713  0.0000E+00  0.6000E+01
    -42.682  0.0000E+00  0.6000E+01
    -42.651  0.0000E+00  0.6000E+01
    -42.620  0.0000E+00  0.6000E+01
    -42.589  0.0000E+00  0.6000E+01
    -42.558  0.0000E+00  0.6000E+01
    -42.527  0.0000E+00  0.6000E+01
    -42.496  0.0000E+00  0.6000E+01
    -42.465  0.0000E+00  0.6000E+01
    -42.434  0.0000E+00  0.6000E+01
    -42.403  0.0000E+00  0.6000E+01
    -42.372  0.0000E+00  0.6000E+01
    -42.341  0.0000E+00  0.6000E+01
    -42.310  0.0000E+00  0.6000E+01
    -42.279  0.0000E+00  0.6000E+01
    -42.248  0.0000E+00  0.6000E+01
    -42.217  0.0000E+00  0.6000E+01
    -42.186  0.0000E+00  0.6000E+01
    -42.155  0.0000E+00  0.6000E+01
    -42.124  0.0000E+00  0.6000E+01
    -42.093  0.0000E+00  0.6000E+01
    -42.062  0.0000E+00  0.6000E+01
    -42.031  0.0000E+00  0.6000E+01
    -42.000  0.0000E+00  0.6000E+01
    -41.970  0.0000E+00  0.6000E+01
    -41.939  0.0000E+00  0.6000E+01
    -41.908  0.0000E+00  0.6000E+01
    -41.877  0.0000E+00  0.6000E+01
    -41.846  0.0000E+00  0.6000E+01
    -41.815  0.0000E+00  0.6000E+01
    -41.784  0.0000E+00  0.6000E+01
    -41.753  0.0000E+00  0.6000E+01
    -41.722  0.0000E+00  0.6000E+01
    -41.691  0.0000E+00  0.6000E+01
    -41.660  0.0000E+00  0.6000E+01
    -41.629  0.0000E+00  0.6000E+01
    -41.598  0.0000E+00  0.6000E+01
    -41.567  0.0000E+00  0.6000E+01
    -41.536  0.0000E+00  0.6000E+01
    -41.505  0.0000E+00  0.6000E+01
    -41.474  0.0000E+00  0.6000E+01
    -41.443  0.0000E+00  0.6000E+01
    -41.412  0.0000E+00  0.6000E+01
    -41.381  0.0000E+00  0.6000E+01
    -41.350  0.0000E+00  0.6000E+01
    -41.319  0.0000E+00  0.6000E+01
    -41.288  0.0000E+00  0.6000E+01
    -41.257  0.0000E+00  0.6000E+01
    -41.226  0.0000E+00  0.6000E+01
    -41.195  0.0000E+00  0.6000E+01
    -41.164  0.0000E+00  0.6000E+01
    -41.134  0.0000E+00  0.6000E+01
    -41.103  0.0000E+00  0.6000E+01
    -41.072  0.0000E+00  0.6000E+01
    -41.041  0.0000E+00  0.6000E+01
    -41.010  0.0000E+00  0.6000E+01
    -40.979  0.0000E+00  0.6000E+01
    -40.948  0.0000E+00  0.6000E+01
    -40.917  0.0000E+00  0.6000E+01
    -40.886  0.0000E+00  0.6000E+01
    -40.855  0.0000E+00  0.6000E+01
    -40.824  0.0000E+00  0.6000E+01
    -40.793  0.0000E+00  0.6000E+01
    -40.762  0.0000E+00  0.6000E+01
    -40.731  0.0000E+00  0.6000E+01
    -40.700  0.0000E+00  0.6000E+01
    -40.669  0.0000E+00  0.6000E+01
    -40.638  0.0000E+00  0.6000E+01
    -40.607  0.0000E+00  0.6000E+01
    -40.576  0.0000E+00  0.6000E+01
    -40.545  0.0000E+00  0.6000E+01
    -40.514  0.0000E+00  0.6000E+01
    -40.483  0.0000E+00  0.6000E+01
    -40.452  0.0000E+00  0.6000E+01
    -40.421  0.0000E+00  0.6000E+01
    -40.390  0.0000E+00  0.6000E+01
    -40.359  0.0000E+00  0.6000E+01
    -40.328  0.0000E+00  0.6000E+01
    -40.298  0.0000E+00  0.6000E+01
    -40.267  0.0000E+00  0.6000E+01
    -40.236  0.0000E+00  0.6000E+01
    -40.205  0.0000E+00  0.6000E+01
    -40.174  0.0000E+00  0.6000E+01
    -40.143  0.0000E+00  0.6000E+01
    -40.112  0.0000E+00  0.6000E+01
    -40.081  0.0000E+00  0.6000E+01
    -40.050  0.0000E+00  0.6000E+01
    -40.019  0.0000E+00  0.6000E+01
    -39.988  0.0000E+00  0.6000E+01
    -39.957  0.0000E+00  0.6000E+01
    -39.926  0.0000E+00  0.6000E+01
    -39.895  0.0000E+00  0.6000E+01
    -39.864  0.0000E+00  0.6000E+01
    -39.833  0.0000E+00  0.6000E+01
    -39.802  0.0000E+00  0.6000E+01
    -39.771  0.0000E+00  0.6000E+01
    -39.740  0.0000E+00  0.6000E+01
    -39.709  0.0000E+00  0.6000E+01
    -39.678  0.0000E+00  0.6000E+01
    -39.647  0.0000E+00  0.6000E+01
    -39.616  0.0000E+00  0.6000E+01
    -39.585  0.0000E+00  0.6000E+01
    -39.554  0.0000E+00  0.6000E+01
    -39.523  0.0000E+00  0.6000E+01
    -39.493  0.0000E+00  0.6000E+01
    -39.462  0.0000E+00  0.6000E+01
    -39.431  0.0000E+00  0.6000E+01
    -39.400  0.0000E+00  0.6000E+01
    -39.369  0.0000E+00  0.6000E+01
    -39.338  0.0000E+00  0.6000E+01
    -39.307  0.0000E+00  0.6000E+01
    -39.276  0.0000E+00  0.6000E+01
    -39.245  0.0000E+00  0.6000E+01
    -39.214  0.0000E+00  0.6000E+01
    -39.183  0.0000E+00  0.6000E+01
    -39.152  0.0000E+00  0.6000E+01
    -39.121  0.0000E+00  0.6000E+01
    -39.090  0.0000E+00  0.6000E+01
    -39.059  0.0000E+00  0.6000E+01
    -39.028  0.0000E+00  0.6000E+01
    -38.997  0.0000E+00  0.6000E+01
    -38.966  0.0000E+00  0.6000E+01
    -38.935  0.0000E+00  0.6000E+01
    -38.904  0.0000E+00  0.6000E+01
    -38.873  0.0000E+00  0.6000E+01
    -38.842  0.0000E+00  0.6000E+01
    -38.811  0.0000E+00  0.6000E+01
    -38.780  0.0000E+00  0.6000E+01
    -38.749  0.0000E+00  0.6000E+01
    -38.718  0.0000E+00  0.6000E+01
    -38.687  0.0000E+00  0.6000E+01
    -38.657  0.0000E+00  0.6000E+01
    -38.626  0.0000E+00  0.6000E+01
    -38.595  0.0000E+00  0.6000E+01
    -38.564  0.0000E+00  0.6000E+01
    -38.533  0.0000E+00  0.6000E+01
    -38.502  0.0000E+00  0.6000E+01
    -38.471  0.0000E+00  0.6000E+01
    -38.440  0.0000E+00  0.6000E+01
    -38.409  0.0000E+00  0.6000E+01
    -38.378  0.0000E+00  0.6000E+01
    -38.347  0.0000E+00  0.6000E+01
    -38.316  0.0000E+00  0.6000E+01
    -38.285  0.0000E+00  0.6000E+01
    -38.254  0.0000E+00  0.6000E+01
    -38.223  0.0000E+00  0.6000E+01
    -38.192  0.0000E+00  0.6000E+01
    -38.161  0.0000E+00  0.6000E+01
    -38.130  0.0000E+00  0.6000E+01
    -38.099  0.0000E+00  0.6000E+01
    -38.068  0.0000E+00  0.6000E+01
    -38.037  0.0000E+00  0.6000E+01
    -38.006  0.0000E+00  0.6000E+01
    -37.975  0.0000E+00  0.6000E+01
    -37.944  0.0000E+00  0.6000E+01
    -37.913  0.0000E+00  0.6000E+01
    -37.882  0.0000E+00  0.6000E+01
    -37.851  0.0000E+00  0.6000E+01
    -37.821  0.0000E+00  0.6000E+01
    -37.790  0.0000E+00  0.6000E+01
    -37.759  0.0000E+00  0.6000E+01
    -37.728  0.0000E+00  0.6000E+01
    -37.697  0.0000E+00  0.6000E+01
    -37.666  0.0000E+00  0.6000E+01
    -37.635  0.0000E+00  0.6000E+01
    -37.604  0.0000E+00  0.6000E+01
    -37.573  0.0000E+00  0.6000E+01
    -37.542  0.0000E+00  0.6000E+01
    -37.511  0.0000E+00  0.6000E+01
    -37.480  0.0000E+00  0.6000E+01
    -37.449  0.0000E+00  0.6000E+01
    -37.418  0.0000E+00  0.6000E+01
    -37.387  0.0000E+00  0.6000E+01
    -37.356  0.0000E+00  0.6000E+01
    -37.325  0.0000E+00  0.6000E+01
    -37.294  0.0000E+00  0.6000E+01
    -37.263  0.0000E+00  0.6000E+01
    -37.232  0.0000E+00  0.6000E+01
    -37.201  0.0000E+00  0.6000E+01
    -37.170  0.0000E+00  0.6000E+01
    -37.139  0.0000E+00  0.6000E+01
    -37.108  0.0000E+00  0.6000E+01
    -37.077  0.0000E+00  0.6000E+01
    -37.046  0.0000E+00  0.6000E+01
    -37.015  0.0000E+00  0.6000E+01
    -36.985  0.0000E+00  0.6000E+01
    -36.954  0.0000E+00  0.6000E+01
    -36.923  0.0000E+00  0.6000E+01
    -36.892  0.0000E+00  0.6000E+01
    -36.861  0.0000E+00  0.6000E+01
    -36.830  0.0000E+00  0.6000E+01
    -36.799  0.0000E+00  0.6000E+01
    -36.768  0.0000E+00  0.6000E+01
    -36.737  0.0000E+00  0.6000E+01
    -36.706  0.0000E+00  0.6000E+01
    -36.675  0.0000E+00  0.6000E+01
    -36.644  0.0000E+00  0.6000E+01
    -36.613  0.0000E+00  0.6000E+01
    -36.582  0.0000E+00  0.6000E+01
    -36.551  0.0000E+00  0.6000E+01
    -36.520  0.0000E+00  0.6000E+01
    -36.489  0.0000E+00  0.6000E+01
    -36.458  0.0000E+00  0.6000E+01
    -36.427  0.0000E+00  0.6000E+01
    -36.396  0.0000E+00  0.6000E+01
    -36.365  0.0000E+00  0.6000E+01
    -36.334  0.0000E+00  0.6000E+01
    -36.303  0.0000E+00  0.6000E+01
    -36.272  0.0000E+00  0.6000E+01
    -36.241  0.0000E+00  0.6000E+01
    -36.210  0.0000E+00  0.6000E+01
    -36.179  0.0000E+00  0.6000E+01
    -36.149  0.0000E+00  0.6000E+01
    -36.118  0.0000E+00  0.6000E+01
    -36.087  0.0000E+00  0.6000E+01
    -36.056  0.0000E+00  0.6000E+01
    -36.025  0.0000E+00  0.6000E+01
    -35.994  0.0000E+00  0.6000E+01
    -35.963  0.0000E+00  0.6000E+01
    -35.932  0.0000E+00  0.6000E+01
    -35.901  0.0000E+00  0.6000E+01
    -35.870  0.0000E+00  0.6000E+01
    -35.839  0.0000E+00  0.6000E+01
    -35.808  0.0000E+00  0.6000E+01
    -35.777  0.0000E+00  0.6000E+01
    -35.746  0.0000E+00  0.6000E+01
    -35.715  0.0000E+00  0.6000E+01
    -35.684  0.0000E+00  0.6000E+01
    -35.653  0.0000E+00  0.6000E+01
    -35.622  0.0000E+00  0.6000E+01
    -35.591  0.0000E+00  0.6000E+01
    -35.560  0.0000E+00  0.6000E+01
    -35.529  0.0000E+00  0.6000E+01
    -35.498  0.0000E+00  0.6000E+01
    -35.467  0.0000E+00  0.6000E+01
    -35.436  0.0000E+00  0.6000E+01
    -35.405  0.0000E+00  0.6000E+01
    -35.374  0.0000E+00  0.6000E+01
    -35.343  0.0000E+00  0.6000E+01
    -35.313  0.0000E+00  0.6000E+01
    -35.282  0.0000E+00  0.6000E+01
    -35.251  0.0000E+00  0.6000E+01
    -35.220  0.0000E+00  0.6000E+01
    -35.189  0.0000E+00  0.6000E+01
    -35.158  0.0000E+00  0.6000E+01
    -35.127  0.0000E+00  0.6000E+01
    -35.096  0.0000E+00  0.6000E+01
    -35.065  0.0000E+00  0.6000E+01
    -35.034  0.0000E+00  0.6000E+01
    -35.003  0.0000E+00  0.6000E+01
    -34.972  0.0000E+00  0.6000E+01
    -34.941  0.0000E+00  0.6000E+01
    -34.910  0.0000E+00  0.6000E+01
    -34.879  0.0000E+00  0.6000E+01
    -34.848  0.0000E+00  0.6000E+01
    -34.817  0.0000E+00  0.6000E+01
    -34.786  0.0000E+00  0.6000E+01
    -34.755  0.0000E+00  0.6000E+01
    -34.724  0.0000E+00  0.6000E+01
    -34.693  0.0000E+00  0.6000E+01
    -34.662  0.0000E+00  0.6000E+01
    -34.631  0.0000E+00  0.6000E+01
    -34.600  0.0000E+00  0.6000E+01
    -34.569  0.0000E+00  0.6000E+01
    -34.538  0.0000E+00  0.6000E+01
    -34.508  0.0000E+00  0.6000E+01
    -34.477  0.0000E+00  0.6000E+01
    -34.446  0.0000E+00  0.6000E+01
    -34.415  0.0000E+00  0.6000E+01
    -34.384  0.0000E+00  0.6000E+01
    -34.353  0.0000E+00  0.6000E+01
    -34.322  0.0000E+00  0.6000E+01
    -34.291  0.0000E+00  0.6000E+01
    -34.260  0.0000E+00  0.6000E+01
    -34.229  0.0000E+00  0.6000E+01
    -34.198  0.0000E+00  0.6000E+01
    -34.167  0.0000E+00  0.6000E+01
    -34.136  0.0000E+00  0.6000E+01
    -34.105  0.0000E+00  0.6000E+01
    -34.074  0.0000E+00  0.6000E+01
    -34.043  0.0000E+00  0.6000E+01
    -34.012  0.0000E+00  0.6000E+01
    -33.981  0.0000E+00  0.6000E+01
    -33.950  0.0000E+00  0.6000E+01
    -33.919  0.0000E+00  0.6000E+01
    -33.888  0.0000E+00  0.6000E+01
    -33.857  0.0000E+00  0.6000E+01
    -33.826  0.0000E+00  0.6000E+01
    -33.795  0.0000E+00  0.6000E+01
    -33.764  0.0000E+00  0.6000E+01
    -33.733  0.0000E+00  0.6000E+01
    -33.702  0.0000E+00  0.6000E+01
    -33.672  0.0000E+00  0.6000E+01
    -33.641  0.0000E+00  0.6000E+01
    -33.610  0.0000E+00  0.6000E+01
    -33.579  0.0000E+00  0.6000E+01
    -33.548  0.0000E+00  0.6000E+01
    -33.517  0.0000E+00  0.6000E+01
    -33.486  0.0000E+00  0.6000E+01
    -33.455  0.0000E+00  0.6000E+01
    -33.424  0.0000E+00  0.6000E+01
    -33.393  0.0000E+00  0.6000E+01
    -33.362  0.0000E+00  0.6000E+01
    -33.331  0.0000E+00  0.6000E+01
    -33.300  0.0000E+00  0.6000E+01
    -33.269  0.0000E+00  0.6000E+01
    -33.238  0.0000E+00  0.6000E+01
    -33.207  0.0000E+00  0.6000E+01
    -33.176  0.0000E+00  0.6000E+01
    -33.145  0.0000E+00  0.6000E+01
    -33.114  0.0000E+00  0.6000E+01
    -33.083  0.0000E+00  0.6000E+01
    -33.052  0.0000E+00  0.6000E+01
    -33.021  0.0000E+00  0.6000E+01
    -32.990  0.0000E+00  0.6000E+01
    -32.959  0.0000E+00  0.6000E+01
    -32.928  0.0000E+00  0.6000E+01
    -32.897  0.0000E+00  0.6000E+01
    -32.866  0.0000E+00  0.6000E+01
    -32.836  0.0000E+00  0.6000E+01
    -32.805  0.0000E+00  0.6000E+01
    -32.774  0.0000E+00  0.6000E+01
    -32.743  0.0000E+00  0.6000E+01
    -32.712  0.0000E+00  0.6000E+01
    -32.681  0.0000E+00  0.6000E+01
    -32.650  0.0000E+00  0.6000E+01
    -32.619  0.0000E+00  0.6000E+01
    -32.588  0.0000E+00  0.6000E+01
    -32.557  0.0000E+00  0.6000E+01
    -32.526  0.0000E+00  0.6000E+01
    -32.495  0.0000E+00  0.6000E+01
    -32.464  0.0000E+00  0.6000E+01
    -32.433  0.0000E+00  0.6000E+01
    -32.402  0.0000E+00  0.6000E+01
    -32.371  0.0000E+00  0.6000E+01
    -32.340  0.0000E+00  0.6000E+01
    -32.309  0.0000E+00  0.6000E+01
    -32.278  0.0000E+00  0.6000E+01
    -32.247  0.0000E+00  0.6000E+01
    -32.216  0.0000E+00  0.6000E+01
    -32.185  0.0000E+00  0.6000E+01
    -32.154  0.0000E+00  0.6000E+01
    -32.123  0.0000E+00  0.6000E+01
    -32.092  0.0000E+00  0.6000E+01
    -32.061  0.0000E+00  0.6000E+01
    -32.030  0.0000E+00  0.6000E+01
    -32.000  0.0000E+00  0.6000E+01
    -31.969  0.0000E+00  0.6000E+01
    -31.938  0.0000E+00  0.6000E+01
    -31.907  0.0000E+00  0.6000E+01
    -31.876  0.0000E+00  0.6000E+01
    -31.845  0.0000E+00  0.6000E+01
    -31.814  0.0000E+00  0.6000E+01
    -31.783  0.0000E+00  0.6000E+01
    -31.752  0.0000E+00  0.6000E+01
    -31.721  0.0000E+00  0.6000E+01
    -31.690  0.0000E+00  0.6000E+01
    -31.659  0.0000E+00  0.6000E+01
    -31.628  0.0000E+00  0.6000E+01
    -31.597  0.0000E+00  0.6000E+01
    -31.566  0.0000E+00  0.6000E+01
    -31.535  0.0000E+00  0.6000E+01
    -31.504  0.0000E+00  0.6000E+01
    -31.473  0.0000E+00  0.6000E+01
    -31.442  0.0000E+00  0.6000E+01
    -31.411  0.0000E+00  0.6000E+01
    -31.380  0.0000E+00  0.6000E+01
    -31.349  0.0000E+00  0.6000E+01
    -31.318  0.0000E+00  0.6000E+01
    -31.287  0.0000E+00  0.6000E+01
    -31.256  0.0000E+00  0.6000E+01
    -31.225  0.0000E+00  0.6000E+01
    -31.194  0.0000E+00  0.6000E+01
    -31.164  0.0000E+00  0.6000E+01
    -31.133  0.0000E+00  0.6000E+01
    -31.102  0.0000E+00  0.6000E+01
    -31.071  0.0000E+00  0.6000E+01
    -31.040  0.0000E+00  0.6000E+01
    -31.009  0.0000E+00  0.6000E+01
    -30.978  0.0000E+00  0.6000E+01
    -30.947  0.0000E+00  0.6000E+01
    -30.916  0.0000E+00  0.6000E+01
    -30.885  0.0000E+00  0.6000E+01
    -30.854  0.0000E+00  0.6000E+01
    -30.823  0.0000E+00  0.6000E+01
    -30.792  0.0000E+00  0.6000E+01
    -30.761  0.0000E+00  0.6000E+01
    -30.730  0.0000E+00  0.6000E+01
    -30.699  0.0000E+00  0.6000E+01
    -30.668  0.0000E+00  0.6000E+01
    -30.637  0.0000E+00  0.6000E+01
    -30.606  0.0000E+00  0.6000E+01
    -30.575  0.0000E+00  0.6000E+01
    -30.544  0.0000E+00  0.6000E+01
    -30.513  0.0000E+00  0.6000E+01
    -30.482  0.0000E+00  0.6000E+01
    -30.451  0.0000E+00  0.6000E+01
    -30.420  0.0000E+00  0.6000E+01
    -30.389  0.0000E+00  0.6000E+01
    -30.358  0.0000E+00  0.6000E+01
    -30.328  0.0000E+00  0.6000E+01
    -30.297  0.0000E+00  0.6000E+01
    -30.266  0.0000E+00  0.6000E+01
    -30.235  0.0000E+00  0.6000E+01
    -30.204  0.0000E+00  0.6000E+01
    -30.173  0.0000E+00  0.6000E+01
    -30.142  0.0000E+00  0.6000E+01
    -30.111  0.0000E+00  0.6000E+01
    -30.080  0.0000E+00  0.6000E+01
    -30.049  0.0000E+00  0.6000E+01
    -30.018  0.0000E+00  0.6000E+01
    -29.987  0.0000E+00  0.6000E+01
    -29.956  0.0000E+00  0.6000E+01
    -29.925  0.0000E+00  0.6000E+01
    -29.894  0.0000E+00  0.6000E+01
    -29.863  0.0000E+00  0.6000E+01
    -29.832  0.0000E+00  0.6000E+01
    -29.801  0.0000E+00  0.6000E+01
    -29.770  0.0000E+00  0.6000E+01
    -29.739  0.0000E+00  0.6000E+01
    -29.708  0.0000E+00  0.6000E+01
    -29.677  0.0000E+00  0.6000E+01
    -29.646  0.0000E+00  0.6000E+01
    -29.615  0.0000E+00  0.6000E+01
    -29.584  0.0000E+00  0.6000E+01
    -29.553  0.0000E+00  0.6000E+01
    -29.523  0.0000E+00  0.6000E+01
    -29.492  0.0000E+00  0.6000E+01
    -29.461  0.0000E+00  0.6000E+01
    -29.430  0.0000E+00  0.6000E+01
    -29.399  0.0000E+00  0.6000E+01
    -29.368  0.0000E+00  0.6000E+01
    -29.337  0.0000E+00  0.6000E+01
    -29.306  0.0000E+00  0.6000E+01
    -29.275  0.0000E+00  0.6000E+01
    -29.244  0.0000E+00  0.6000E+01
    -29.213  0.0000E+00  0.6000E+01
    -29.182  0.0000E+00  0.6000E+01
    -29.151  0.0000E+00  0.6000E+01
    -29.120  0.0000E+00  0.6000E+01
    -29.089  0.0000E+00  0.6000E+01
    -29.058  0.0000E+00  0.6000E+01
    -29.027  0.0000E+00  0.6000E+01
    -28.996  0.0000E+00  0.6000E+01
    -28.965  0.0000E+00  0.6000E+01
    -28.934  0.0000E+00  0.6000E+01
    -28.903  0.0000E+00  0.6000E+01
    -28.872  0.0000E+00  0.6000E+01
    -28.841  0.0000E+00  0.6000E+01
    -28.810  0.0000E+00  0.6000E+01
    -28.779  0.0000E+00  0.6000E+01
    -28.748  0.0000E+00  0.6000E+01
    -28.717  0.0000E+00  0.6000E+01
    -28.687  0.0000E+00  0.6000E+01
    -28.656  0.0000E+00  0.6000E+01
    -28.625  0.0000E+00  0.6000E+01
    -28.594  0.0000E+00  0.6000E+01
    -28.563  0.0000E+00  0.6000E+01
    -28.532  0.0000E+00  0.6000E+01
    -28.501  0.0000E+00  0.6000E+01
    -28.470  0.0000E+00  0.6000E+01
    -28.439  0.0000E+00  0.6000E+01
    -28.408  0.0000E+00  0.6000E+01
    -28.377  0.0000E+00  0.6000E+01
    -28.346  0.0000E+00  0.6000E+01
    -28.315  0.0000E+00  0.6000E+01
    -28.284  0.0000E+00  0.6000E+01
    -28.253  0.0000E+00  0.6000E+01
    -28.222  0.0000E+00  0.6000E+01
    -28.191  0.0000E+00  0.6000E+01
    -28.160  0.0000E+00  0.6000E+01
    -28.129  0.0000E+00  0.6000E+01
    -28.098  0.0000E+00  0.6000E+01
    -28.067  0.0000E+00  0.6000E+01
    -28.036  0.0000E+00  0.6000E+01
    -28.005  0.0000E+00  0.6000E+01
    -27.974  0.0000E+00  0.6000E+01
    -27.943  0.0000E+00  0.6000E+01
    -27.912  0.0000E+00  0.6000E+01
    -27.881  0.0000E+00  0.6000E+01
    -27.851  0.0000E+00  0.6000E+01
    -27.820  0.0000E+00  0.6000E+01
    -27.789  0.0000E+00  0.6000E+01
    -27.758  0.0000E+00  0.6000E+01
    -27.727  0.0000E+00  0.6000E+01
    -27.696  0.0000E+00  0.6000E+01
    -27.665  0.0000E+00  0.6000E+01
    -27.634  0.0000E+00  0.6000E+01
    -27.603  0.0000E+00  0.6000E+01
    -27.572  0.0000E+00  0.6000E+01
    -27.541  0.0000E+00  0.6000E+01
    -27.510  0.0000E+00  0.6000E+01
    -27.479  0.0000E+00  0.6000E+01
    -27.448  0.0000E+00  0.6000E+01
    -27.417  0.0000E+00  0.6000E+01
    -27.386  0.0000E+00  0.6000E+01
    -27.355  0.0000E+00  0.6000E+01
    -27.324  0.0000E+00  0.6000E+01
    -27.293  0.0000E+00  0.6000E+01
    -27.262  0.0000E+00  0.6000E+01
    -27.231  0.0000E+00  0.6000E+01
    -27.200  0.0000E+00  0.6000E+01
    -27.169  0.0000E+00  0.6000E+01
    -27.138  0.0000E+00  0.6000E+01
    -27.107  0.0000E+00  0.6000E+01
    -27.076  0.0000E+00  0.6000E+01
    -27.045  0.0000E+00  0.6000E+01
    -27.015  0.0000E+00  0.6000E+01
    -26.984  0.0000E+00  0.6000E+01
    -26.953  0.0000E+00  0.6000E+01
    -26.922  0.0000E+00  0.6000E+01
    -26.891  0.0000E+00  0.6000E+01
    -26.860  0.0000E+00  0.6000E+01
    -26.829  0.0000E+00  0.6000E+01
    -26.798  0.0000E+00  0.6000E+01
    -26.767  0.0000E+00  0.6000E+01
    -26.736  0.0000E+00  0.6000E+01
    -26.705  0.0000E+00  0.6000E+01
    -26.674  0.0000E+00  0.6000E+01
    -26.643  0.0000E+00  0.6000E+01
    -26.612  0.0000E+00  0.6000E+01
    -26.581  0.0000E+00  0.6000E+01
    -26.550  0.0000E+00  0.6000E+01
    -26.519  0.0000E+00  0.6000E+01
    -26.488  0.0000E+00  0.6000E+01
    -26.457  0.0000E+00  0.6000E+01
    -26.426  0.0000E+00  0.6000E+01
    -26.395  0.0000E+00  0.6000E+01
    -26.364  0.0000E+00  0.6000E+01
    -26.333  0.0000E+00  0.6000E+01
    -26.302  0.0000E+00  0.6000E+01
    -26.271  0.0000E+00  0.6000E+01
    -26.240  0.0000E+00  0.6000E+01
    -26.209  0.0000E+00  0.6000E+01
    -26.179  0.0000E+00  0.6000E+01
    -26.148  0.0000E+00  0.6000E+01
    -26.117  0.0000E+00  0.6000E+01
    -26.086  0.0000E+00  0.6000E+01
    -26.055  0.0000E+00  0.6000E+01
    -26.024  0.0000E+00  0.6000E+01
    -25.993  0.0000E+00  0.6000E+01
    -25.962  0.0000E+00  0.6000E+01
    -25.931  0.0000E+00  0.6000E+01
    -25.900  0.0000E+00  0.6000E+01
    -25.869  0.0000E+00  0.6000E+01
    -25.838  0.0000E+00  0.6000E+01
    -25.807  0.0000E+00  0.6000E+01
    -25.776  0.0000E+00  0.6000E+01
    -25.745  0.0000E+00  0.6000E+01
    -25.714  0.0000E+00  0.6000E+01
    -25.683  0.0000E+00  0.6000E+01
    -25.652  0.0000E+00  0.6000E+01
    -25.621  0.0000E+00  0.6000E+01
    -25.590  0.0000E+00  0.6000E+01
    -25.559  0.0000E+00  0.6000E+01
    -25.528  0.0000E+00  0.6000E+01
    -25.497  0.0000E+00  0.6000E+01
    -25.466  0.0000E+00  0.6000E+01
    -25.435  0.0000E+00  0.6000E+01
    -25.404  0.0000E+00  0.6000E+01
    -25.373  0.0000E+00  0.6000E+01
    -25.343  0.0000E+00  0.6000E+01
    -25.312  0.0000E+00  0.6000E+01
    -25.281  0.0000E+00  0.6000E+01
    -25.250  0.0000E+00  0.6000E+01
    -25.219  0.0000E+00  0.6000E+01
    -25.188  0.0000E+00  0.6000E+01
    -25.157  0.0000E+00  0.6000E+01
    -25.126  0.0000E+00  0.6000E+01
    -25.095  0.0000E+00  0.6000E+01
    -25.064  0.0000E+00  0.6000E+01
    -25.033  0.0000E+00  0.6000E+01
    -25.002  0.0000E+00  0.6000E+01
    -24.971  0.0000E+00  0.6000E+01
    -24.940  0.0000E+00  0.6000E+01
    -24.909  0.0000E+00  0.6000E+01
    -24.878  0.0000E+00  0.6000E+01