 vasp.6.2.1 16May21 (build May 20 2021 13:04:43) complex                        
  
 executed on             LinuxIFC date 2023.11.29  13:33:26
 running on   64 total cores
 distrk:  each k-point on   64 cores,    1 groups
 distr:  one band on NCORE=   8 cores,    8 groups


--------------------------------------------------------------------------------------------------------


 INCAR:
   ENCUT = 330
   EDIFF = 1E-7
   LORBIT = 12
   LREAL = .False.
   ICHARG = 11
   NELM = 200
   NELMIN = 6
   NELMDL = -7
   PREC = Accurate
   ALGO = Fast
   NBANDS = 64
   NSW = 0
   IBRION = -1
   ISIF = 3
   EDIFFG = -0.001
   VOSKOWN = 1
   LASPH = True
   IVDW = 12
   ISMEAR = 2
   SIGMA = 0.05
   NEDOS = 2001
   ISPIN = 2
   MAGMOM = 0.0 0.0 5.0 -0.0 -0.0 -0.6 -0.0 -0.0 -0.6
   ISYM = -1
   LSORBIT = .TRUE.
   SAXIS = 0 0 1
   EFIELD = 0.00
   IDIPOL = 3
   LDIPOL = .TRUE.
   LVHAR = .TRUE.
   AMIX = 0.2
   BMIX = 0.00001
   AMIX_MAG = 0.8
   BMIX_MAG = 0.00001
   LDAU = .TRUE.
   LDAUTYPE = 2
   LDAUL = 2 -1 -1
   LDAUU = 3.0 0.00 0.00
   LDAUJ = 0.00 0.00 0.00
   LDAUPRINT = 2
   LMAXMIX = 4
   LWAVE = .TRUE.
   NCORE = 8

 POTCAR:    PAW_PBE Cr_pv 02Aug2007               
 POTCAR:    PAW_PBE S 06Sep2000                   
 POTCAR:    PAW_PBE Te 08Apr2002                  
 POTCAR:    PAW_PBE Cr_pv 02Aug2007               
   VRHFIN =Cr : p6d5s1                                                                              
   LEXCH  = PE                                                                                      
   EATOM  =  1647.9177 eV,  121.1185 Ry                                                             
                                                                                                    
   TITEL  = PAW_PBE Cr_pv 02Aug2007                                                                 
   LULTRA =        F    use ultrasoft PP ?                                                          
   IUNSCR =        1    unscreen: 0-lin 1-nonlin 2-no                                               
   RPACOR =    2.080    partial core radius                                                         
   POMASS =   51.996; ZVAL   =   12.000    mass and valenz                                          
   RCORE  =    2.300    outmost cutoff radius                                                       
   RWIGS  =    2.500; RWIGS  =    1.323    wigner-seitz radius (au A)                               
   ENMAX  =  265.681; ENMIN  =  199.261 eV                                                          
   ICORE  =        3    local potential                                                             
   LCOR   =        T    correct aug charges                                                         
   LPAW   =        T    paw PP                                                                      
   EAUG   =  519.424                                                                                
   DEXC   =    0.000                                                                                
   RMAX   =    2.356    core radius for proj-oper                                                   
   RAUG   =    1.300    factor for augmentation sphere                                              
   RDEP   =    2.447    radius for radial grids                                                     
   RDEPT  =    1.882    core radius for aug-charge                                                  
                                                                                                    
   Atomic configuration                                                                             
    8 entries                                                                                       
     n  l   j            E        occ.                                                              
     1  0  0.50     -5880.4963   2.0000                                                             
     2  0  0.50      -667.0865   2.0000                                                             
     2  1  1.50      -560.6250   6.0000                                                             
     3  0  0.50       -73.9860   2.0000                                                             
     3  1  1.50       -45.4378   6.0000                                                             
     3  2  2.50        -2.9137   5.0000                                                             
     4  0  0.50        -4.0071   1.0000                                                             
     4  3  2.50        -1.3606   0.0000                                                             
   Description                                                                                      
     l       E           TYP  RCUT    TYP  RCUT                                                     
     1    -45.4377911     23  2.000                                                                 
     1      1.3605826     23  2.000                                                                 
     2     -2.9136672     23  2.300                                                                 
     2     -4.2742498     23  2.300                                                                 
     0     -4.0071320     23  2.300                                                                 
     0      9.4498803     23  2.300                                                                 
     3      2.7211652     23  2.300                                                                 
  local pseudopotential read in
  partial core-charges read in
  partial kinetic energy density read in
  atomic valenz-charges read in
  non local Contribution for L=           1  read in
    real space projection operators read in
  non local Contribution for L=           1  read in
    real space projection operators read in
  non local Contribution for L=           2  read in
    real space projection operators read in
  non local Contribution for L=           2  read in
    real space projection operators read in
  non local Contribution for L=           0  read in
    real space projection operators read in
  non local Contribution for L=           0  read in
    real space projection operators read in
    PAW grid and wavefunctions read in
 
   number of l-projection  operators is LMAX  =           6
   number of lm-projection operators is LMMAX =          18
 
 POTCAR:    PAW_PBE S 06Sep2000                   
   VRHFIN =S : s2p4                                                                                 
   LEXCH  = PE                                                                                      
   EATOM  =   276.8230 eV,   20.3459 Ry                                                             
                                                                                                    
   TITEL  = PAW_PBE S 06Sep2000                                                                     
   LULTRA =        F    use ultrasoft PP ?                                                          
   IUNSCR =        1    unscreen: 0-lin 1-nonlin 2-no                                               
   RPACOR =    1.500    partial core radius                                                         
   POMASS =   32.066; ZVAL   =    6.000    mass and valenz                                          
   RCORE  =    1.900    outmost cutoff radius                                                       
   RWIGS  =    2.200; RWIGS  =    1.164    wigner-seitz radius (au A)                               
   ENMAX  =  258.689; ENMIN  =  194.016 eV                                                          
   ICORE  =        2    local potential                                                             
   LCOR   =        T    correct aug charges                                                         
   LPAW   =        T    paw PP                                                                      
   EAUG   =  335.092                                                                                
   DEXC   =    0.000                                                                                
   RMAX   =    1.942    core radius for proj-oper                                                   
   RAUG   =    1.300    factor for augmentation sphere                                              
   RDEP   =    1.954    radius for radial grids                                                     
   RDEPT  =    1.744    core radius for aug-charge                                                  
                                                                                                    
   Atomic configuration                                                                             
    6 entries                                                                                       
     n  l   j            E        occ.                                                              
     1  0  0.50     -2405.8406   2.0000                                                             
     2  0  0.50      -211.7007   2.0000                                                             
     2  1  1.50      -156.4958   6.0000                                                             
     3  0  0.50       -17.2562   2.0000                                                             
     3  1  0.50        -7.0085   4.0000                                                             
     3  2  1.50        -6.8029   0.0000                                                             
   Description                                                                                      
     l       E           TYP  RCUT    TYP  RCUT                                                     
     0    -17.2561641     23  1.900                                                                 
     0    -15.8743224     23  1.900                                                                 
     1     -7.0085400     23  1.900                                                                 
     1     -2.7779785     23  1.900                                                                 
     2     -6.8029130     23  1.900                                                                 
  local pseudopotential read in
  partial core-charges read in
  partial kinetic energy density read in
  atomic valenz-charges read in
  non local Contribution for L=           0  read in
    real space projection operators read in
  non local Contribution for L=           0  read in
    real space projection operators read in
  non local Contribution for L=           1  read in
    real space projection operators read in
  non local Contribution for L=           1  read in
    real space projection operators read in
    PAW grid and wavefunctions read in
 
   number of l-projection  operators is LMAX  =           4
   number of lm-projection operators is LMMAX =           8
 
 POTCAR:    PAW_PBE Te 08Apr2002                  
   VRHFIN =Te: s2p4                                                                                 
   LEXCH  = PE                                                                                      
   EATOM  =   223.2721 eV,   16.4100 Ry                                                             
                                                                                                    
   TITEL  = PAW_PBE Te 08Apr2002                                                                    
   LULTRA =        F    use ultrasoft PP ?                                                          
   IUNSCR =        1    unscreen: 0-lin 1-nonlin 2-no                                               
   RPACOR =    2.200    partial core radius                                                         
   POMASS =  127.600; ZVAL   =    6.000    mass and valenz                                          
   RCORE  =    2.300    outmost cutoff radius                                                       
   RWIGS  =    2.900; RWIGS  =    1.535    wigner-seitz radius (au A)                               
   ENMAX  =  174.982; ENMIN  =  131.236 eV                                                          
   ICORE  =        3    local potential                                                             
   LCOR   =        T    correct aug charges                                                         
   LPAW   =        T    paw PP                                                                      
   EAUG   =  368.792                                                                                
   DEXC   =    0.000                                                                                
   RMAX   =    2.345    core radius for proj-oper                                                   
   RAUG   =    1.300    factor for augmentation sphere                                              
   RDEP   =    2.397    radius for radial grids                                                     
   RDEPT  =    2.174    core radius for aug-charge                                                  
                                                                                                    
   Atomic configuration                                                                             
   13 entries                                                                                       
     n  l   j            E        occ.                                                              
     1  0  0.50    -31621.2075   2.0000                                                             
     2  0  0.50     -4848.7941   2.0000                                                             
     2  1  1.50     -4352.1960   6.0000                                                             
     3  0  0.50      -964.9612   2.0000                                                             
     3  1  1.50      -803.6179   6.0000                                                             
     3  2  2.50      -559.8710  10.0000                                                             
     4  0  0.50      -164.3522   2.0000                                                             
     4  1  1.50      -114.3756   6.0000                                                             
     4  2  2.50       -41.6483  10.0000                                                             
     5  0  0.50       -15.1072   2.0000                                                             
     5  1  0.50        -5.9526   4.0000                                                             
     5  2  1.50        -5.4423   0.0000                                                             
     4  3  2.50        -5.4423   0.0000                                                             
   Description                                                                                      
     l       E           TYP  RCUT    TYP  RCUT                                                     
     0    -15.1072389     23  2.300                                                                 
     0    -16.4678215     23  2.300                                                                 
     1     -5.9526306     23  2.300                                                                 
     1     -2.4873968     23  2.300                                                                 
     2     -5.4423304     23  2.300                                                                 
     3     -1.3605826     23  2.300                                                                 
  local pseudopotential read in
  partial core-charges read in
  partial kinetic energy density read in
  atomic valenz-charges read in
  non local Contribution for L=           0  read in
    real space projection operators read in
  non local Contribution for L=           0  read in
    real space projection operators read in
  non local Contribution for L=           1  read in
    real space projection operators read in
  non local Contribution for L=           1  read in
    real space projection operators read in
  non local Contribution for L=           2  read in
    real space projection operators read in
    PAW grid and wavefunctions read in
 
   number of l-projection  operators is LMAX  =           5
   number of lm-projection operators is LMMAX =          13
 
  PAW_PBE Cr_pv 02Aug2007               :
 energy of atom  1       EATOM=-1647.9177
 kinetic energy error for atom=    0.0585 (will be added to EATOM!!)
  PAW_PBE S 06Sep2000                   :
 energy of atom  2       EATOM= -276.8230
 kinetic energy error for atom=    0.0053 (will be added to EATOM!!)
  PAW_PBE Te 08Apr2002                  :
 energy of atom  3       EATOM= -223.2721
 kinetic energy error for atom=    0.0022 (will be added to EATOM!!)
 
 
 POSCAR: Cr S Te
  positions in direct lattice
  velocities in cartesian coordinates
 exchange correlation table for  LEXCH =        8
   RHO(1)=    0.500       N(1)  =     2000
   RHO(2)=  100.500       N(2)  =     4000
 


--------------------------------------------------------------------------------------------------------


 ion  position               nearest neighbor table
   1  0.000  0.000  0.109-   2 2.34   2 2.34   2 2.34   3 2.84   3 2.84   3 2.84
   2  0.667  0.333  0.069-   1 2.34   1 2.34   1 2.34
   3  0.333  0.667  0.175-   1 2.84   1 2.84   1 2.84
 

IMPORTANT INFORMATION: All symmetrisations will be switched off!
NOSYMM: (Re-)initialisation of all symmetry stuff for point group C_1.


----------------------------------------------------------------------------------------

                                     Primitive cell                                     

  volume of cell :     316.1269

  direct lattice vectors                    reciprocal lattice vectors
     3.427808124  0.000000218  0.000000000     0.291731604  0.168431348  0.000000000
    -1.713904293  2.968568820  0.000000000    -0.000000021  0.336862651 -0.000000000
    -0.000000000  0.000000000 31.066888743     0.000000000  0.000000000  0.032188611

  length of vectors
     3.427808124  3.427808158 31.066888743     0.336862655  0.336862651  0.032188611

  position of ions in fractional coordinates (direct lattice)
     0.000000000  0.000000000  0.109235567
     0.666667000  0.333333000  0.069107151
     0.333334175  0.666667000  0.174792033

  ion indices of the primitive-cell ions
   primitive index   ion index
                 1           1
                 2           2
                 3           3

----------------------------------------------------------------------------------------

 
 
 KPOINTS: K-Path Generated by VASPKIT.            

Interpolating k-points between supplied coordinates.

 Line segments in fractional coordinates (reciprocal lattice):
    0.333333  0.333333  0.000000  ...  0.000000  0.000000  0.000000
    0.000000  0.000000  0.000000  ...  0.500000  0.000000  0.000000
    0.500000  0.000000  0.000000  ...  0.333333  0.333333  0.000000

 Generated    51 points on each line segment, for a total of    153 k-points:

 Following reciprocal coordinates:
            Coordinates               Weight
  0.333333  0.333333  0.000000      0.006536
  0.326667  0.326667  0.000000      0.006536
  0.320000  0.320000  0.000000      0.006536
  0.313333  0.313333  0.000000      0.006536
  0.306667  0.306667  0.000000      0.006536
  0.300000  0.300000  0.000000      0.006536
  0.293333  0.293333  0.000000      0.006536
  0.286667  0.286667  0.000000      0.006536
  0.280000  0.280000  0.000000      0.006536
  0.273333  0.273333  0.000000      0.006536
  0.266667  0.266667  0.000000      0.006536
  0.260000  0.260000  0.000000      0.006536
  0.253333  0.253333  0.000000      0.006536
  0.246667  0.246667  0.000000      0.006536
  0.240000  0.240000  0.000000      0.006536
  0.233333  0.233333  0.000000      0.006536
  0.226667  0.226667  0.000000      0.006536
  0.220000  0.220000  0.000000      0.006536
  0.213333  0.213333  0.000000      0.006536
  0.206667  0.206667  0.000000      0.006536
  0.200000  0.200000  0.000000      0.006536
  0.193333  0.193333  0.000000      0.006536
  0.186667  0.186667  0.000000      0.006536
  0.180000  0.180000  0.000000      0.006536
  0.173333  0.173333  0.000000      0.006536
  0.166667  0.166667  0.000000      0.006536
  0.160000  0.160000  0.000000      0.006536
  0.153333  0.153333  0.000000      0.006536
  0.146667  0.146667  0.000000      0.006536
  0.140000  0.140000  0.000000      0.006536
  0.133333  0.133333  0.000000      0.006536
  0.126667  0.126667  0.000000      0.006536
  0.120000  0.120000  0.000000      0.006536
  0.113333  0.113333  0.000000      0.006536
  0.106667  0.106667  0.000000      0.006536
  0.100000  0.100000  0.000000      0.006536
  0.093333  0.093333  0.000000      0.006536
  0.086667  0.086667  0.000000      0.006536
  0.080000  0.080000  0.000000      0.006536
  0.073333  0.073333  0.000000      0.006536
  0.066667  0.066667  0.000000      0.006536
  0.060000  0.060000  0.000000      0.006536
  0.053333  0.053333  0.000000      0.006536
  0.046667  0.046667  0.000000      0.006536
  0.040000  0.040000  0.000000      0.006536
  0.033333  0.033333  0.000000      0.006536
  0.026667  0.026667  0.000000      0.006536
  0.020000  0.020000  0.000000      0.006536
  0.013333  0.013333  0.000000      0.006536
  0.006667  0.006667  0.000000      0.006536
  0.000000  0.000000  0.000000      0.006536
  0.000000  0.000000  0.000000      0.006536
  0.010000  0.000000  0.000000      0.006536
  0.020000  0.000000  0.000000      0.006536
  0.030000  0.000000  0.000000      0.006536
  0.040000  0.000000  0.000000      0.006536
  0.050000  0.000000  0.000000      0.006536
  0.060000  0.000000  0.000000      0.006536
  0.070000  0.000000  0.000000      0.006536
  0.080000  0.000000  0.000000      0.006536
  0.090000  0.000000  0.000000      0.006536
  0.100000  0.000000  0.000000      0.006536
  0.110000  0.000000  0.000000      0.006536
  0.120000  0.000000  0.000000      0.006536
  0.130000  0.000000  0.000000      0.006536
  0.140000  0.000000  0.000000      0.006536
  0.150000  0.000000  0.000000      0.006536
  0.160000  0.000000  0.000000      0.006536
  0.170000  0.000000  0.000000      0.006536
  0.180000  0.000000  0.000000      0.006536
  0.190000  0.000000  0.000000      0.006536
  0.200000  0.000000  0.000000      0.006536
  0.210000  0.000000  0.000000      0.006536
  0.220000  0.000000  0.000000      0.006536
  0.230000  0.000000  0.000000      0.006536
  0.240000  0.000000  0.000000      0.006536
  0.250000  0.000000  0.000000      0.006536
  0.260000  0.000000  0.000000      0.006536
  0.270000  0.000000  0.000000      0.006536
  0.280000  0.000000  0.000000      0.006536
  0.290000  0.000000  0.000000      0.006536
  0.300000  0.000000  0.000000      0.006536
  0.310000  0.000000  0.000000      0.006536
  0.320000  0.000000  0.000000      0.006536
  0.330000  0.000000  0.000000      0.006536
  0.340000  0.000000  0.000000      0.006536
  0.350000  0.000000  0.000000      0.006536
  0.360000  0.000000  0.000000      0.006536
  0.370000  0.000000  0.000000      0.006536
  0.380000  0.000000  0.000000      0.006536
  0.390000  0.000000  0.000000      0.006536
  0.400000  0.000000  0.000000      0.006536
  0.410000  0.000000  0.000000      0.006536
  0.420000  0.000000  0.000000      0.006536
  0.430000  0.000000  0.000000      0.006536
  0.440000  0.000000  0.000000      0.006536
  0.450000  0.000000  0.000000      0.006536
  0.460000  0.000000  0.000000      0.006536
  0.470000  0.000000  0.000000      0.006536
  0.480000  0.000000  0.000000      0.006536
  0.490000  0.000000  0.000000      0.006536
  0.500000  0.000000  0.000000      0.006536
  0.500000  0.000000  0.000000      0.006536
  0.496667  0.006667  0.000000      0.006536
  0.493333  0.013333  0.000000      0.006536
  0.490000  0.020000  0.000000      0.006536
  0.486667  0.026667  0.000000      0.006536
  0.483333  0.033333  0.000000      0.006536
  0.480000  0.040000  0.000000      0.006536
  0.476667  0.046667  0.000000      0.006536
  0.473333  0.053333  0.000000      0.006536
  0.470000  0.060000  0.000000      0.006536
  0.466667  0.066667  0.000000      0.006536
  0.463333  0.073333  0.000000      0.006536
  0.460000  0.080000  0.000000      0.006536
  0.456667  0.086667  0.000000      0.006536
  0.453333  0.093333  0.000000      0.006536
  0.450000  0.100000  0.000000      0.006536
  0.446667  0.106667  0.000000      0.006536
  0.443333  0.113333  0.000000      0.006536
  0.440000  0.120000  0.000000      0.006536
  0.436667  0.126667  0.000000      0.006536
  0.433333  0.133333  0.000000      0.006536
  0.430000  0.140000  0.000000      0.006536
  0.426667  0.146667  0.000000      0.006536
  0.423333  0.153333  0.000000      0.006536
  0.420000  0.160000  0.000000      0.006536
  0.416667  0.166667  0.000000      0.006536
  0.413333  0.173333  0.000000      0.006536
  0.410000  0.180000  0.000000      0.006536
  0.406667  0.186667  0.000000      0.006536
  0.403333  0.193333  0.000000      0.006536
  0.400000  0.200000  0.000000      0.006536
  0.396667  0.206667  0.000000      0.006536
  0.393333  0.213333  0.000000      0.006536
  0.390000  0.220000  0.000000      0.006536
  0.386667  0.226667  0.000000      0.006536
  0.383333  0.233333  0.000000      0.006536
  0.380000  0.240000  0.000000      0.006536
  0.376667  0.246667  0.000000      0.006536
  0.373333  0.253333  0.000000      0.006536
  0.370000  0.260000  0.000000      0.006536
  0.366667  0.266667  0.000000      0.006536
  0.363333  0.273333  0.000000      0.006536
  0.360000  0.280000  0.000000      0.006536
  0.356667  0.286667  0.000000      0.006536
  0.353333  0.293333  0.000000      0.006536
  0.350000  0.300000  0.000000      0.006536
  0.346667  0.306667  0.000000      0.006536
  0.343333  0.313333  0.000000      0.006536
  0.340000  0.320000  0.000000      0.006536
  0.336667  0.326667  0.000000      0.006536
  0.333333  0.333333  0.000000      0.006536

 Following cartesian coordinates:
            Coordinates               Weight
  0.097244  0.168431  0.000000      0.006536
  0.095299  0.165063  0.000000      0.006536
  0.093354  0.161694  0.000000      0.006536
  0.091409  0.158325  0.000000      0.006536
  0.089464  0.154957  0.000000      0.006536
  0.087519  0.151588  0.000000      0.006536
  0.085575  0.148220  0.000000      0.006536
  0.083630  0.144851  0.000000      0.006536
  0.081685  0.141482  0.000000      0.006536
  0.079740  0.138114  0.000000      0.006536
  0.077795  0.134745  0.000000      0.006536
  0.075850  0.131376  0.000000      0.006536
  0.073905  0.128008  0.000000      0.006536
  0.071960  0.124639  0.000000      0.006536
  0.070016  0.121271  0.000000      0.006536
  0.068071  0.117902  0.000000      0.006536
  0.066126  0.114533  0.000000      0.006536
  0.064181  0.111165  0.000000      0.006536
  0.062236  0.107796  0.000000      0.006536
  0.060291  0.104427  0.000000      0.006536
  0.058346  0.101059  0.000000      0.006536
  0.056401  0.097690  0.000000      0.006536
  0.054457  0.094322  0.000000      0.006536
  0.052512  0.090953  0.000000      0.006536
  0.050567  0.087584  0.000000      0.006536
  0.048622  0.084216  0.000000      0.006536
  0.046677  0.080847  0.000000      0.006536
  0.044732  0.077478  0.000000      0.006536
  0.042787  0.074110  0.000000      0.006536
  0.040842  0.070741  0.000000      0.006536
  0.038898  0.067373  0.000000      0.006536
  0.036953  0.064004  0.000000      0.006536
  0.035008  0.060635  0.000000      0.006536
  0.033063  0.057267  0.000000      0.006536
  0.031118  0.053898  0.000000      0.006536
  0.029173  0.050529  0.000000      0.006536
  0.027228  0.047161  0.000000      0.006536
  0.025283  0.043792  0.000000      0.006536
  0.023339  0.040424  0.000000      0.006536
  0.021394  0.037055  0.000000      0.006536
  0.019449  0.033686  0.000000      0.006536
  0.017504  0.030318  0.000000      0.006536
  0.015559  0.026949  0.000000      0.006536
  0.013614  0.023580  0.000000      0.006536
  0.011669  0.020212  0.000000      0.006536
  0.009724  0.016843  0.000000      0.006536
  0.007780  0.013475  0.000000      0.006536
  0.005835  0.010106  0.000000      0.006536
  0.003890  0.006737  0.000000      0.006536
  0.001945  0.003369  0.000000      0.006536
  0.000000  0.000000  0.000000      0.006536
  0.000000  0.000000  0.000000      0.006536
  0.002917  0.001684  0.000000      0.006536
  0.005835  0.003369  0.000000      0.006536
  0.008752  0.005053  0.000000      0.006536
  0.011669  0.006737  0.000000      0.006536
  0.014587  0.008422  0.000000      0.006536
  0.017504  0.010106  0.000000      0.006536
  0.020421  0.011790  0.000000      0.006536
  0.023339  0.013475  0.000000      0.006536
  0.026256  0.015159  0.000000      0.006536
  0.029173  0.016843  0.000000      0.006536
  0.032090  0.018527  0.000000      0.006536
  0.035008  0.020212  0.000000      0.006536
  0.037925  0.021896  0.000000      0.006536
  0.040842  0.023580  0.000000      0.006536
  0.043760  0.025265  0.000000      0.006536
  0.046677  0.026949  0.000000      0.006536
  0.049594  0.028633  0.000000      0.006536
  0.052512  0.030318  0.000000      0.006536
  0.055429  0.032002  0.000000      0.006536
  0.058346  0.033686  0.000000      0.006536
  0.061264  0.035371  0.000000      0.006536
  0.064181  0.037055  0.000000      0.006536
  0.067098  0.038739  0.000000      0.006536
  0.070016  0.040424  0.000000      0.006536
  0.072933  0.042108  0.000000      0.006536
  0.075850  0.043792  0.000000      0.006536
  0.078768  0.045476  0.000000      0.006536
  0.081685  0.047161  0.000000      0.006536
  0.084602  0.048845  0.000000      0.006536
  0.087519  0.050529  0.000000      0.006536
  0.090437  0.052214  0.000000      0.006536
  0.093354  0.053898  0.000000      0.006536
  0.096271  0.055582  0.000000      0.006536
  0.099189  0.057267  0.000000      0.006536
  0.102106  0.058951  0.000000      0.006536
  0.105023  0.060635  0.000000      0.006536
  0.107941  0.062320  0.000000      0.006536
  0.110858  0.064004  0.000000      0.006536
  0.113775  0.065688  0.000000      0.006536
  0.116693  0.067373  0.000000      0.006536
  0.119610  0.069057  0.000000      0.006536
  0.122527  0.070741  0.000000      0.006536
  0.125445  0.072425  0.000000      0.006536
  0.128362  0.074110  0.000000      0.006536
  0.131279  0.075794  0.000000      0.006536
  0.134197  0.077478  0.000000      0.006536
  0.137114  0.079163  0.000000      0.006536
  0.140031  0.080847  0.000000      0.006536
  0.142948  0.082531  0.000000      0.006536
  0.145866  0.084216  0.000000      0.006536
  0.145866  0.084216  0.000000      0.006536
  0.144893  0.085900  0.000000      0.006536
  0.143921  0.087584  0.000000      0.006536
  0.142948  0.089269  0.000000      0.006536
  0.141976  0.090953  0.000000      0.006536
  0.141004  0.092637  0.000000      0.006536
  0.140031  0.094322  0.000000      0.006536
  0.139059  0.096006  0.000000      0.006536
  0.138086  0.097690  0.000000      0.006536
  0.137114  0.099374  0.000000      0.006536
  0.136141  0.101059  0.000000      0.006536
  0.135169  0.102743  0.000000      0.006536
  0.134197  0.104427  0.000000      0.006536
  0.133224  0.106112  0.000000      0.006536
  0.132252  0.107796  0.000000      0.006536
  0.131279  0.109480  0.000000      0.006536
  0.130307  0.111165  0.000000      0.006536
  0.129334  0.112849  0.000000      0.006536
  0.128362  0.114533  0.000000      0.006536
  0.127389  0.116218  0.000000      0.006536
  0.126417  0.117902  0.000000      0.006536
  0.125445  0.119586  0.000000      0.006536
  0.124472  0.121271  0.000000      0.006536
  0.123500  0.122955  0.000000      0.006536
  0.122527  0.124639  0.000000      0.006536
  0.121555  0.126324  0.000000      0.006536
  0.120582  0.128008  0.000000      0.006536
  0.119610  0.129692  0.000000      0.006536
  0.118638  0.131376  0.000000      0.006536
  0.117665  0.133061  0.000000      0.006536
  0.116693  0.134745  0.000000      0.006536
  0.115720  0.136429  0.000000      0.006536
  0.114748  0.138114  0.000000      0.006536
  0.113775  0.139798  0.000000      0.006536
  0.112803  0.141482  0.000000      0.006536
  0.111830  0.143167  0.000000      0.006536
  0.110858  0.144851  0.000000      0.006536
  0.109886  0.146535  0.000000      0.006536
  0.108913  0.148220  0.000000      0.006536
  0.107941  0.149904  0.000000      0.006536
  0.106968  0.151588  0.000000      0.006536
  0.105996  0.153273  0.000000      0.006536
  0.105023  0.154957  0.000000      0.006536
  0.104051  0.156641  0.000000      0.006536
  0.103078  0.158325  0.000000      0.006536
  0.102106  0.160010  0.000000      0.006536
  0.101134  0.161694  0.000000      0.006536
  0.100161  0.163378  0.000000      0.006536
  0.099189  0.165063  0.000000      0.006536
  0.098216  0.166747  0.000000      0.006536
  0.097244  0.168431  0.000000      0.006536
 


--------------------------------------------------------------------------------------------------------




 Dimension of arrays:
   k-points           NKPTS =    153   k-points in BZ     NKDIM =    153   number of bands    NBANDS=     64
   number of dos      NEDOS =   2001   number of ions     NIONS =      3
   non local maximal  LDIM  =      6   non local SUM 2l+1 LMDIM =     18
   total plane-waves  NPLWV =  76800
   max r-space proj   IRMAX =      1   max aug-charges    IRDMAX=  14328
   dimension x,y,z NGX =    20 NGY =   20 NGZ =  192
   dimension x,y,z NGXF=    40 NGYF=   40 NGZF=  384
   support grid    NGXF=    40 NGYF=   40 NGZF=  384
   ions per type =               1   1   1
   NGX,Y,Z   is equivalent  to a cutoff of   9.70,  9.70, 10.27 a.u.
   NGXF,Y,Z  is equivalent  to a cutoff of  19.40, 19.40, 20.55 a.u.

 SYSTEM =  unknown system                          
 POSCAR =  Cr S Te                                 

 Startparameter for this run:
   NWRITE =      2    write-flag & timer
   PREC   = accura    normal or accurate (medium, high low for compatibility)
   ISTART =      0    job   : 0-new  1-cont  2-samecut
   ICHARG =     11    charge: 1-file 2-atom 10-const
   ISPIN  =      1    spin polarized calculation?
   LNONCOLLINEAR =      T non collinear calculations
   LSORBIT =      T    spin-orbit coupling
   INIWAV =      1    electr: 0-lowe 1-rand  2-diag
   LASPH  =      T    aspherical Exc in radial PAW
 Electronic Relaxation 1
   ENCUT  =  330.0 eV  24.25 Ry    4.92 a.u.   5.08  5.08 46.02*2*pi/ulx,y,z
   ENINI  =  330.0     initial cutoff
   ENAUG  =  519.4 eV  augmentation charge cutoff
   NELM   =    200;   NELMIN=  6; NELMDL= -7     # of ELM steps 
   EDIFF  = 0.1E-06   stopping-criterion for ELM
   LREAL  =      F    real-space projection
   NLSPLINE    = F    spline interpolate recip. space projectors
   LCOMPAT=      F    compatible to vasp.4.4
   GGA_COMPAT  = T    GGA compatible to vasp.4.4-vasp.4.6
   LMAXPAW     = -100 max onsite density
   LMAXMIX     =    4 max onsite mixed and CHGCAR
   VOSKOWN=      1    Vosko Wilk Nusair interpolation
   ROPT   =    0.00000   0.00000   0.00000
 Ionic relaxation
   EDIFFG = -.1E-02   stopping-criterion for IOM
   NSW    =      0    number of steps for IOM
   NBLOCK =      1;   KBLOCK =      1    inner block; outer block 
   IBRION =     -1    ionic relax: 0-MD 1-quasi-New 2-CG
   NFREE  =      0    steps in history (QN), initial steepest desc. (CG)
   ISIF   =      3    stress and relaxation
   IWAVPR =     10    prediction:  0-non 1-charg 2-wave 3-comb
   ISYM   =     -1    0-nonsym 1-usesym 2-fastsym
   LCORR  =      T    Harris-Foulkes like correction to forces

   POTIM  = 0.5000    time-step for ionic-motion
   TEIN   =    0.0    initial temperature
   TEBEG  =    0.0;   TEEND  =   0.0 temperature during run
   SMASS  =  -3.00    Nose mass-parameter (am)
   estimated Nose-frequenzy (Omega)   =  0.10E-29 period in steps = 0.13E+47 mass=  -0.269E-27a.u.
   SCALEE = 1.0000    scale energy and forces
   NPACO  =    256;   APACO  = 16.0  distance and # of slots for P.C.
   PSTRESS=    0.0 pullay stress

  Mass of Ions in am
   POMASS =  52.00 32.07127.60
  Ionic Valenz
   ZVAL   =  12.00  6.00  6.00
  Atomic Wigner-Seitz radii
   RWIGS  =  -1.00 -1.00 -1.00
  virtual crystal weights 
   VCA    =   1.00  1.00  1.00
   NELECT =      24.0000    total number of electrons
   NUPDOWN=      -1.0000    fix difference up-down

 DOS related values:
   EMIN   =  10.00;   EMAX   =-10.00  energy-range for DOS
   EFERMI =   0.00
   ISMEAR =     2;   SIGMA  =   0.05  broadening in eV -4-tet -1-fermi 0-gaus

 Electronic relaxation 2 (details)
   IALGO  =     68    algorithm
   LDIAG  =      T    sub-space diagonalisation (order eigenvalues)
   LSUBROT=      F    optimize rotation matrix (better conditioning)
   TURBO    =      0    0=normal 1=particle mesh
   IRESTART =      0    0=no restart 2=restart with 2 vectors
   NREBOOT  =      0    no. of reboots
   NMIN     =      0    reboot dimension
   EREF     =   0.00    reference energy to select bands
   IMIX   =      4    mixing-type and parameters
     AMIX     =   0.20;   BMIX     =  0.00
     AMIX_MAG =   0.80;   BMIX_MAG =  0.00
     AMIN     =   0.10
     WC   =   100.;   INIMIX=   1;  MIXPRE=   1;  MAXMIX= -45

 Intra band minimization:
   WEIMIN = 0.0000     energy-eigenvalue tresh-hold
   EBREAK =  0.39E-09  absolut break condition
   DEPER  =   0.30     relativ break condition  

   TIME   =   0.40     timestep for ELM

  volume/ion in A,a.u.               =     105.38       711.11
  Fermi-wavevector in a.u.,A,eV,Ry     =   0.693199  1.309957  6.537943  0.480525
  Thomas-Fermi vector in A             =   1.775346
 
 Write flags
   LWAVE        =      T    write WAVECAR
   LDOWNSAMPLE  =      F    k-point downsampling of WAVECAR
   LCHARG       =      T    write CHGCAR
   LVTOT        =      F    write LOCPOT, total local potential
   LVHAR        =      T    write LOCPOT, Hartree potential only
   LELF         =      F    write electronic localiz. function (ELF)
   LORBIT       =     12    0 simple, 1 ext, 2 COOP (PROOUT), +10 PAW based schemes


 Dipole corrections
   LMONO  =      F    monopole corrections only (constant potential shift)
   LDIPOL =      T    correct potential (dipole corrections)
   IDIPOL =      3    1-x, 2-y, 3-z, 4-all directions 
   EPSILON=  1.0000000 bulk dielectric constant

 LDA+U is selected, type is set to LDAUTYPE =  2
   angular momentum for each species LDAUL =     2   -1   -1
   U (eV)           for each species LDAUU =   3.0  0.0  0.0
   J (eV)           for each species LDAUJ =   0.0  0.0  0.0
 Exchange correlation treatment:
   GGA     =    --    GGA type
   LEXCH   =     8    internal setting for exchange type
   VOSKOWN=      1    Vosko Wilk Nusair interpolation
   LHFCALC =     F    Hartree Fock is set to
   LHFONE  =     F    Hartree Fock one center treatment
   AEXX    =    0.0000 exact exchange contribution

 Linear response parameters
   LEPSILON=     F    determine dielectric tensor
   LRPA    =     F    only Hartree local field effects (RPA)
   LNABLA  =     F    use nabla operator in PAW spheres
   LVEL    =     F    velocity operator in full k-point grid
   LINTERFAST=   F  fast interpolation
   KINTER  =     0    interpolate to denser k-point grid
   CSHIFT  =0.1000    complex shift for real part using Kramers Kronig
   OMEGAMAX=  -1.0    maximum frequency
   DEG_THRESHOLD= 0.2000000E-02 threshold for treating states as degnerate
   RTIME   =   -0.100 relaxation time in fs
  (WPLASMAI=    0.000 imaginary part of plasma frequency in eV, 0.658/RTIME)
   DFIELD  = 0.0000000 0.0000000 0.0000000 field for delta impulse in time
 
 Orbital magnetization related:
   ORBITALMAG=     F  switch on orbital magnetization
   LCHIMAG   =     F  perturbation theory with respect to B field
   DQ        =  0.001000  dq finite difference perturbation B field
   LLRAUG    =     F  two centre corrections for induced B field



--------------------------------------------------------------------------------------------------------


 Static calculation
 charge density and potential remain constant during run
 non collinear spin polarized calculation
 RMM-DIIS sequential band-by-band and
  variant of blocked Davidson during initial phase
 perform sub-space diagonalisation
    before iterative eigenvector-optimisation
 no mixing
 using additional bands           52
 reciprocal scheme for non local part
 use partial core corrections
 calculate Harris-corrections to forces 
   (improved forces if not selfconsistent)
 use gradient corrections 
 WARNING: stress and forces are not correct
  (second derivative of E(xc) not defined)
 use of overlap-Matrix (Vanderbilt PP)
 Methfessel and Paxton  Order N= 2 SIGMA  =   0.05


--------------------------------------------------------------------------------------------------------


  energy-cutoff  :      330.00
  volume of cell :      316.13
      direct lattice vectors                 reciprocal lattice vectors
     3.427808124  0.000000218  0.000000000     0.291731604  0.168431348  0.000000000
    -1.713904293  2.968568820  0.000000000    -0.000000021  0.336862651 -0.000000000
    -0.000000000  0.000000000 31.066888743     0.000000000  0.000000000  0.032188611

  length of vectors
     3.427808124  3.427808158 31.066888743     0.336862655  0.336862651  0.032188611


 
 k-points in units of 2pi/SCALE and weight: K-Path Generated by VASPKIT.            
   0.09724386  0.16843133  0.00000000       0.007
   0.09529898  0.16506271  0.00000000       0.007
   0.09335411  0.16169408  0.00000000       0.007
   0.09140923  0.15832545  0.00000000       0.007
   0.08946435  0.15495683  0.00000000       0.007
   0.08751947  0.15158820  0.00000000       0.007
   0.08557460  0.14821957  0.00000000       0.007
   0.08362972  0.14485095  0.00000000       0.007
   0.08168484  0.14148232  0.00000000       0.007
   0.07973997  0.13811369  0.00000000       0.007
   0.07779509  0.13474507  0.00000000       0.007
   0.07585021  0.13137644  0.00000000       0.007
   0.07390533  0.12800781  0.00000000       0.007
   0.07196046  0.12463919  0.00000000       0.007
   0.07001558  0.12127056  0.00000000       0.007
   0.06807070  0.11790193  0.00000000       0.007
   0.06612583  0.11453331  0.00000000       0.007
   0.06418095  0.11116468  0.00000000       0.007
   0.06223607  0.10779605  0.00000000       0.007
   0.06029119  0.10442743  0.00000000       0.007
   0.05834632  0.10105880  0.00000000       0.007
   0.05640144  0.09769017  0.00000000       0.007
   0.05445656  0.09432155  0.00000000       0.007
   0.05251168  0.09095292  0.00000000       0.007
   0.05056681  0.08758429  0.00000000       0.007
   0.04862193  0.08421567  0.00000000       0.007
   0.04667705  0.08084704  0.00000000       0.007
   0.04473218  0.07747841  0.00000000       0.007
   0.04278730  0.07410979  0.00000000       0.007
   0.04084242  0.07074116  0.00000000       0.007
   0.03889754  0.06737253  0.00000000       0.007
   0.03695267  0.06400391  0.00000000       0.007
   0.03500779  0.06063528  0.00000000       0.007
   0.03306291  0.05726665  0.00000000       0.007
   0.03111804  0.05389803  0.00000000       0.007
   0.02917316  0.05052940  0.00000000       0.007
   0.02722828  0.04716077  0.00000000       0.007
   0.02528340  0.04379215  0.00000000       0.007
   0.02333853  0.04042352  0.00000000       0.007
   0.02139365  0.03705489  0.00000000       0.007
   0.01944877  0.03368627  0.00000000       0.007
   0.01750389  0.03031764  0.00000000       0.007
   0.01555902  0.02694901  0.00000000       0.007
   0.01361414  0.02358039  0.00000000       0.007
   0.01166926  0.02021176  0.00000000       0.007
   0.00972439  0.01684313  0.00000000       0.007
   0.00777951  0.01347451  0.00000000       0.007
   0.00583463  0.01010588  0.00000000       0.007
   0.00388975  0.00673725  0.00000000       0.007
   0.00194488  0.00336863  0.00000000       0.007
   0.00000000  0.00000000  0.00000000       0.007
   0.00000000  0.00000000  0.00000000       0.007
   0.00291732  0.00168431  0.00000000       0.007
   0.00583463  0.00336863  0.00000000       0.007
   0.00875195  0.00505294  0.00000000       0.007
   0.01166926  0.00673725  0.00000000       0.007
   0.01458658  0.00842157  0.00000000       0.007
   0.01750390  0.01010588  0.00000000       0.007
   0.02042121  0.01179019  0.00000000       0.007
   0.02333853  0.01347451  0.00000000       0.007
   0.02625584  0.01515882  0.00000000       0.007
   0.02917316  0.01684313  0.00000000       0.007
   0.03209048  0.01852745  0.00000000       0.007
   0.03500779  0.02021176  0.00000000       0.007
   0.03792511  0.02189608  0.00000000       0.007
   0.04084242  0.02358039  0.00000000       0.007
   0.04375974  0.02526470  0.00000000       0.007
   0.04667706  0.02694902  0.00000000       0.007
   0.04959437  0.02863333  0.00000000       0.007
   0.05251169  0.03031764  0.00000000       0.007
   0.05542900  0.03200196  0.00000000       0.007
   0.05834632  0.03368627  0.00000000       0.007
   0.06126364  0.03537058  0.00000000       0.007
   0.06418095  0.03705490  0.00000000       0.007
   0.06709827  0.03873921  0.00000000       0.007
   0.07001559  0.04042352  0.00000000       0.007
   0.07293290  0.04210784  0.00000000       0.007
   0.07585022  0.04379215  0.00000000       0.007
   0.07876753  0.04547646  0.00000000       0.007
   0.08168485  0.04716078  0.00000000       0.007
   0.08460217  0.04884509  0.00000000       0.007
   0.08751948  0.05052940  0.00000000       0.007
   0.09043680  0.05221372  0.00000000       0.007
   0.09335411  0.05389803  0.00000000       0.007
   0.09627143  0.05558234  0.00000000       0.007
   0.09918875  0.05726666  0.00000000       0.007
   0.10210606  0.05895097  0.00000000       0.007
   0.10502338  0.06063529  0.00000000       0.007
   0.10794069  0.06231960  0.00000000       0.007
   0.11085801  0.06400391  0.00000000       0.007
   0.11377533  0.06568823  0.00000000       0.007
   0.11669264  0.06737254  0.00000000       0.007
   0.11960996  0.06905685  0.00000000       0.007
   0.12252727  0.07074117  0.00000000       0.007
   0.12544459  0.07242548  0.00000000       0.007
   0.12836191  0.07410979  0.00000000       0.007
   0.13127922  0.07579411  0.00000000       0.007
   0.13419654  0.07747842  0.00000000       0.007
   0.13711385  0.07916273  0.00000000       0.007
   0.14003117  0.08084705  0.00000000       0.007
   0.14294849  0.08253136  0.00000000       0.007
   0.14586580  0.08421567  0.00000000       0.007
   0.14586580  0.08421567  0.00000000       0.007
   0.14489336  0.08589999  0.00000000       0.007
   0.14392092  0.08758430  0.00000000       0.007
   0.14294849  0.08926861  0.00000000       0.007
   0.14197605  0.09095293  0.00000000       0.007
   0.14100361  0.09263724  0.00000000       0.007
   0.14003117  0.09432155  0.00000000       0.007
   0.13905873  0.09600587  0.00000000       0.007
   0.13808629  0.09769018  0.00000000       0.007
   0.13711385  0.09937449  0.00000000       0.007
   0.13614141  0.10105881  0.00000000       0.007
   0.13516898  0.10274312  0.00000000       0.007
   0.13419654  0.10442743  0.00000000       0.007
   0.13322410  0.10611175  0.00000000       0.007
   0.13225166  0.10779606  0.00000000       0.007
   0.13127922  0.10948037  0.00000000       0.007
   0.13030678  0.11116469  0.00000000       0.007
   0.12933434  0.11284900  0.00000000       0.007
   0.12836190  0.11453331  0.00000000       0.007
   0.12738946  0.11621762  0.00000000       0.007
   0.12641703  0.11790194  0.00000000       0.007
   0.12544459  0.11958625  0.00000000       0.007
   0.12447215  0.12127056  0.00000000       0.007
   0.12349971  0.12295488  0.00000000       0.007
   0.12252727  0.12463919  0.00000000       0.007
   0.12155483  0.12632350  0.00000000       0.007
   0.12058239  0.12800782  0.00000000       0.007
   0.11960995  0.12969213  0.00000000       0.007
   0.11863752  0.13137644  0.00000000       0.007
   0.11766508  0.13306076  0.00000000       0.007
   0.11669264  0.13474507  0.00000000       0.007
   0.11572020  0.13642938  0.00000000       0.007
   0.11474776  0.13811370  0.00000000       0.007
   0.11377532  0.13979801  0.00000000       0.007
   0.11280288  0.14148232  0.00000000       0.007
   0.11183044  0.14316664  0.00000000       0.007
   0.11085800  0.14485095  0.00000000       0.007
   0.10988557  0.14653526  0.00000000       0.007
   0.10891313  0.14821958  0.00000000       0.007
   0.10794069  0.14990389  0.00000000       0.007
   0.10696825  0.15158820  0.00000000       0.007
   0.10599581  0.15327251  0.00000000       0.007
   0.10502337  0.15495683  0.00000000       0.007
   0.10405093  0.15664114  0.00000000       0.007
   0.10307849  0.15832545  0.00000000       0.007
   0.10210606  0.16000977  0.00000000       0.007
   0.10113362  0.16169408  0.00000000       0.007
   0.10016118  0.16337839  0.00000000       0.007
   0.09918874  0.16506271  0.00000000       0.007
   0.09821630  0.16674702  0.00000000       0.007
   0.09724386  0.16843133  0.00000000       0.007
 
 k-points in reciprocal lattice and weights: K-Path Generated by VASPKIT.            
   0.33333333  0.33333333  0.00000000       0.007
   0.32666667  0.32666667  0.00000000       0.007
   0.32000000  0.32000000  0.00000000       0.007
   0.31333333  0.31333333  0.00000000       0.007
   0.30666667  0.30666667  0.00000000       0.007
   0.30000000  0.30000000  0.00000000       0.007
   0.29333333  0.29333333  0.00000000       0.007
   0.28666667  0.28666667  0.00000000       0.007
   0.28000000  0.28000000  0.00000000       0.007
   0.27333333  0.27333333  0.00000000       0.007
   0.26666667  0.26666667  0.00000000       0.007
   0.26000000  0.26000000  0.00000000       0.007
   0.25333333  0.25333333  0.00000000       0.007
   0.24666667  0.24666667  0.00000000       0.007
   0.24000000  0.24000000  0.00000000       0.007
   0.23333333  0.23333333  0.00000000       0.007
   0.22666667  0.22666667  0.00000000       0.007
   0.22000000  0.22000000  0.00000000       0.007
   0.21333333  0.21333333  0.00000000       0.007
   0.20666667  0.20666667  0.00000000       0.007
   0.20000000  0.20000000  0.00000000       0.007
   0.19333333  0.19333333  0.00000000       0.007
   0.18666667  0.18666667  0.00000000       0.007
   0.18000000  0.18000000  0.00000000       0.007
   0.17333333  0.17333333  0.00000000       0.007
   0.16666667  0.16666667  0.00000000       0.007
   0.16000000  0.16000000  0.00000000       0.007
   0.15333333  0.15333333  0.00000000       0.007
   0.14666667  0.14666667  0.00000000       0.007
   0.14000000  0.14000000  0.00000000       0.007
   0.13333333  0.13333333  0.00000000       0.007
   0.12666667  0.12666667  0.00000000       0.007
   0.12000000  0.12000000  0.00000000       0.007
   0.11333333  0.11333333  0.00000000       0.007
   0.10666667  0.10666667  0.00000000       0.007
   0.10000000  0.10000000  0.00000000       0.007
   0.09333333  0.09333333  0.00000000       0.007
   0.08666667  0.08666667  0.00000000       0.007
   0.08000000  0.08000000  0.00000000       0.007
   0.07333333  0.07333333  0.00000000       0.007
   0.06666667  0.06666667  0.00000000       0.007
   0.06000000  0.06000000  0.00000000       0.007
   0.05333333  0.05333333  0.00000000       0.007
   0.04666667  0.04666667  0.00000000       0.007
   0.04000000  0.04000000  0.00000000       0.007
   0.03333333  0.03333333  0.00000000       0.007
   0.02666667  0.02666667  0.00000000       0.007
   0.02000000  0.02000000  0.00000000       0.007
   0.01333333  0.01333333  0.00000000       0.007
   0.00666667  0.00666667  0.00000000       0.007
   0.00000000  0.00000000  0.00000000       0.007
   0.00000000  0.00000000  0.00000000       0.007
   0.01000000  0.00000000  0.00000000       0.007
   0.02000000  0.00000000  0.00000000       0.007
   0.03000000  0.00000000  0.00000000       0.007
   0.04000000  0.00000000  0.00000000       0.007
   0.05000000  0.00000000  0.00000000       0.007
   0.06000000  0.00000000  0.00000000       0.007
   0.07000000  0.00000000  0.00000000       0.007
   0.08000000  0.00000000  0.00000000       0.007
   0.09000000  0.00000000  0.00000000       0.007
   0.10000000  0.00000000  0.00000000       0.007
   0.11000000  0.00000000  0.00000000       0.007
   0.12000000  0.00000000  0.00000000       0.007
   0.13000000  0.00000000  0.00000000       0.007
   0.14000000  0.00000000  0.00000000       0.007
   0.15000000  0.00000000  0.00000000       0.007
   0.16000000  0.00000000  0.00000000       0.007
   0.17000000  0.00000000  0.00000000       0.007
   0.18000000  0.00000000  0.00000000       0.007
   0.19000000  0.00000000  0.00000000       0.007
   0.20000000  0.00000000  0.00000000       0.007
   0.21000000  0.00000000  0.00000000       0.007
   0.22000000  0.00000000  0.00000000       0.007
   0.23000000  0.00000000  0.00000000       0.007
   0.24000000  0.00000000  0.00000000       0.007
   0.25000000  0.00000000  0.00000000       0.007
   0.26000000  0.00000000  0.00000000       0.007
   0.27000000  0.00000000  0.00000000       0.007
   0.28000000  0.00000000  0.00000000       0.007
   0.29000000  0.00000000  0.00000000       0.007
   0.30000000  0.00000000  0.00000000       0.007
   0.31000000  0.00000000  0.00000000       0.007
   0.32000000  0.00000000  0.00000000       0.007
   0.33000000  0.00000000  0.00000000       0.007
   0.34000000  0.00000000  0.00000000       0.007
   0.35000000  0.00000000  0.00000000       0.007
   0.36000000  0.00000000  0.00000000       0.007
   0.37000000  0.00000000  0.00000000       0.007
   0.38000000  0.00000000  0.00000000       0.007
   0.39000000  0.00000000  0.00000000       0.007
   0.40000000  0.00000000  0.00000000       0.007
   0.41000000  0.00000000  0.00000000       0.007
   0.42000000  0.00000000  0.00000000       0.007
   0.43000000  0.00000000  0.00000000       0.007
   0.44000000  0.00000000  0.00000000       0.007
   0.45000000  0.00000000  0.00000000       0.007
   0.46000000  0.00000000  0.00000000       0.007
   0.47000000  0.00000000  0.00000000       0.007
   0.48000000  0.00000000  0.00000000       0.007
   0.49000000  0.00000000  0.00000000       0.007
   0.50000000  0.00000000  0.00000000       0.007
   0.50000000  0.00000000  0.00000000       0.007
   0.49666667  0.00666667  0.00000000       0.007
   0.49333333  0.01333333  0.00000000       0.007
   0.49000000  0.02000000  0.00000000       0.007
   0.48666667  0.02666667  0.00000000       0.007
   0.48333333  0.03333333  0.00000000       0.007
   0.48000000  0.04000000  0.00000000       0.007
   0.47666667  0.04666667  0.00000000       0.007
   0.47333333  0.05333333  0.00000000       0.007
   0.47000000  0.06000000  0.00000000       0.007
   0.46666667  0.06666667  0.00000000       0.007
   0.46333333  0.07333333  0.00000000       0.007
   0.46000000  0.08000000  0.00000000       0.007
   0.45666667  0.08666667  0.00000000       0.007
   0.45333333  0.09333333  0.00000000       0.007
   0.45000000  0.10000000  0.00000000       0.007
   0.44666667  0.10666667  0.00000000       0.007
   0.44333333  0.11333333  0.00000000       0.007
   0.44000000  0.12000000  0.00000000       0.007
   0.43666667  0.12666667  0.00000000       0.007
   0.43333333  0.13333333  0.00000000       0.007
   0.43000000  0.14000000  0.00000000       0.007
   0.42666667  0.14666667  0.00000000       0.007
   0.42333333  0.15333333  0.00000000       0.007
   0.42000000  0.16000000  0.00000000       0.007
   0.41666667  0.16666667  0.00000000       0.007
   0.41333333  0.17333333  0.00000000       0.007
   0.41000000  0.18000000  0.00000000       0.007
   0.40666667  0.18666667  0.00000000       0.007
   0.40333333  0.19333333  0.00000000       0.007
   0.40000000  0.20000000  0.00000000       0.007
   0.39666667  0.20666667  0.00000000       0.007
   0.39333333  0.21333333  0.00000000       0.007
   0.39000000  0.22000000  0.00000000       0.007
   0.38666667  0.22666667  0.00000000       0.007
   0.38333333  0.23333333  0.00000000       0.007
   0.38000000  0.24000000  0.00000000       0.007
   0.37666667  0.24666667  0.00000000       0.007
   0.37333333  0.25333333  0.00000000       0.007
   0.37000000  0.26000000  0.00000000       0.007
   0.36666667  0.26666667  0.00000000       0.007
   0.36333333  0.27333333  0.00000000       0.007
   0.36000000  0.28000000  0.00000000       0.007
   0.35666667  0.28666667  0.00000000       0.007
   0.35333333  0.29333333  0.00000000       0.007
   0.35000000  0.30000000  0.00000000       0.007
   0.34666667  0.30666667  0.00000000       0.007
   0.34333333  0.31333333  0.00000000       0.007
   0.34000000  0.32000000  0.00000000       0.007
   0.33666667  0.32666667  0.00000000       0.007
   0.33333333  0.33333333  0.00000000       0.007
 
 position of ions in fractional coordinates (direct lattice) 
   0.00000000  0.00000000  0.10923557
   0.66666700  0.33333300  0.06910715
   0.33333417  0.66666700  0.17479203
 
 position of ions in cartesian coordinates  (Angst):
  -0.00000000  0.00000000  3.39360919
   1.71390570  0.98952210  2.14694418
   0.00000216  1.97904694  5.43024463
 
 Euler angles ALPHA=     0.0000000  BETA=     0.0000000

 transformation matrix from SAXIS to cartesian coordinates
 ---------------------------------------------------------
     1.0000000 m_x     0.0000000 m_y     0.0000000 m_z
     0.0000000 m_x     1.0000000 m_y     0.0000000 m_z
     0.0000000 m_x     0.0000000 m_y     1.0000000 m_z

 transformation matrix from cartesian coordinates to SAXIS
 ---------------------------------------------------------
     1.0000000 m_x     0.0000000 m_y     0.0000000 m_z
     0.0000000 m_x     1.0000000 m_y     0.0000000 m_z
     0.0000000 m_x     0.0000000 m_y     1.0000000 m_z




--------------------------------------------------------------------------------------------------------


 k-point   1 :   0.3333 0.3333 0.0000  plane waves:    8682
 k-point   2 :   0.3267 0.3267 0.0000  plane waves:    8666
 k-point   3 :   0.3200 0.3200 0.0000  plane waves:    8658
 k-point   4 :   0.3133 0.3133 0.0000  plane waves:    8666
 k-point   5 :   0.3067 0.3067 0.0000  plane waves:    8678
 k-point   6 :   0.3000 0.3000 0.0000  plane waves:    8670
 k-point   7 :   0.2933 0.2933 0.0000  plane waves:    8670
 k-point   8 :   0.2867 0.2867 0.0000  plane waves:    8658
 k-point   9 :   0.2800 0.2800 0.0000  plane waves:    8638
 k-point  10 :   0.2733 0.2733 0.0000  plane waves:    8630
 k-point  11 :   0.2667 0.2667 0.0000  plane waves:    8638
 k-point  12 :   0.2600 0.2600 0.0000  plane waves:    8650
 k-point  13 :   0.2533 0.2533 0.0000  plane waves:    8662
 k-point  14 :   0.2467 0.2467 0.0000  plane waves:    8662
 k-point  15 :   0.2400 0.2400 0.0000  plane waves:    8654
 k-point  16 :   0.2333 0.2333 0.0000  plane waves:    8678
 k-point  17 :   0.2267 0.2267 0.0000  plane waves:    8662
 k-point  18 :   0.2200 0.2200 0.0000  plane waves:    8646
 k-point  19 :   0.2133 0.2133 0.0000  plane waves:    8662
 k-point  20 :   0.2067 0.2067 0.0000  plane waves:    8646
 k-point  21 :   0.2000 0.2000 0.0000  plane waves:    8638
 k-point  22 :   0.1933 0.1933 0.0000  plane waves:    8642
 k-point  23 :   0.1867 0.1867 0.0000  plane waves:    8642
 k-point  24 :   0.1800 0.1800 0.0000  plane waves:    8642
 k-point  25 :   0.1733 0.1733 0.0000  plane waves:    8638
 k-point  26 :   0.1667 0.1667 0.0000  plane waves:    8622
 k-point  27 :   0.1600 0.1600 0.0000  plane waves:    8610
 k-point  28 :   0.1533 0.1533 0.0000  plane waves:    8586
 k-point  29 :   0.1467 0.1467 0.0000  plane waves:    8574
 k-point  30 :   0.1400 0.1400 0.0000  plane waves:    8562
 k-point  31 :   0.1333 0.1333 0.0000  plane waves:    8530
 k-point  32 :   0.1267 0.1267 0.0000  plane waves:    8518
 k-point  33 :   0.1200 0.1200 0.0000  plane waves:    8522
 k-point  34 :   0.1133 0.1133 0.0000  plane waves:    8494
 k-point  35 :   0.1067 0.1067 0.0000  plane waves:    8502
 k-point  36 :   0.1000 0.1000 0.0000  plane waves:    8510
 k-point  37 :   0.0933 0.0933 0.0000  plane waves:    8478
 k-point  38 :   0.0867 0.0867 0.0000  plane waves:    8470
 k-point  39 :   0.0800 0.0800 0.0000  plane waves:    8478
 k-point  40 :   0.0733 0.0733 0.0000  plane waves:    8474
 k-point  41 :   0.0667 0.0667 0.0000  plane waves:    8478
 k-point  42 :   0.0600 0.0600 0.0000  plane waves:    8462
 k-point  43 :   0.0533 0.0533 0.0000  plane waves:    8454
 k-point  44 :   0.0467 0.0467 0.0000  plane waves:    8478
 k-point  45 :   0.0400 0.0400 0.0000  plane waves:    8478
 k-point  46 :   0.0333 0.0333 0.0000  plane waves:    8478
 k-point  47 :   0.0267 0.0267 0.0000  plane waves:    8474
 k-point  48 :   0.0200 0.0200 0.0000  plane waves:    8486
 k-point  49 :   0.0133 0.0133 0.0000  plane waves:    8506
 k-point  50 :   0.0067 0.0067 0.0000  plane waves:    8514
 k-point  51 :   0.0000 0.0000 0.0000  plane waves:    8538
 k-point  52 :   0.0000 0.0000 0.0000  plane waves:    8538
 k-point  53 :   0.0100 0.0000 0.0000  plane waves:    8514
 k-point  54 :   0.0200 0.0000 0.0000  plane waves:    8514
 k-point  55 :   0.0300 0.0000 0.0000  plane waves:    8482
 k-point  56 :   0.0400 0.0000 0.0000  plane waves:    8482
 k-point  57 :   0.0500 0.0000 0.0000  plane waves:    8462
 k-point  58 :   0.0600 0.0000 0.0000  plane waves:    8486
 k-point  59 :   0.0700 0.0000 0.0000  plane waves:    8490
 k-point  60 :   0.0800 0.0000 0.0000  plane waves:    8490
 k-point  61 :   0.0900 0.0000 0.0000  plane waves:    8502
 k-point  62 :   0.1000 0.0000 0.0000  plane waves:    8486
 k-point  63 :   0.1100 0.0000 0.0000  plane waves:    8486
 k-point  64 :   0.1200 0.0000 0.0000  plane waves:    8490
 k-point  65 :   0.1300 0.0000 0.0000  plane waves:    8470
 k-point  66 :   0.1400 0.0000 0.0000  plane waves:    8482
 k-point  67 :   0.1500 0.0000 0.0000  plane waves:    8494
 k-point  68 :   0.1600 0.0000 0.0000  plane waves:    8494
 k-point  69 :   0.1700 0.0000 0.0000  plane waves:    8478
 k-point  70 :   0.1800 0.0000 0.0000  plane waves:    8506
 k-point  71 :   0.1900 0.0000 0.0000  plane waves:    8514
 k-point  72 :   0.2000 0.0000 0.0000  plane waves:    8566
 k-point  73 :   0.2100 0.0000 0.0000  plane waves:    8562
 k-point  74 :   0.2200 0.0000 0.0000  plane waves:    8574
 k-point  75 :   0.2300 0.0000 0.0000  plane waves:    8590
 k-point  76 :   0.2400 0.0000 0.0000  plane waves:    8574
 k-point  77 :   0.2500 0.0000 0.0000  plane waves:    8578
 k-point  78 :   0.2600 0.0000 0.0000  plane waves:    8594
 k-point  79 :   0.2700 0.0000 0.0000  plane waves:    8574
 k-point  80 :   0.2800 0.0000 0.0000  plane waves:    8574
 k-point  81 :   0.2900 0.0000 0.0000  plane waves:    8578
 k-point  82 :   0.3000 0.0000 0.0000  plane waves:    8602
 k-point  83 :   0.3100 0.0000 0.0000  plane waves:    8614
 k-point  84 :   0.3200 0.0000 0.0000  plane waves:    8618
 k-point  85 :   0.3300 0.0000 0.0000  plane waves:    8610
 k-point  86 :   0.3400 0.0000 0.0000  plane waves:    8606
 k-point  87 :   0.3500 0.0000 0.0000  plane waves:    8626
 k-point  88 :   0.3600 0.0000 0.0000  plane waves:    8622
 k-point  89 :   0.3700 0.0000 0.0000  plane waves:    8614
 k-point  90 :   0.3800 0.0000 0.0000  plane waves:    8630
 k-point  91 :   0.3900 0.0000 0.0000  plane waves:    8634
 k-point  92 :   0.4000 0.0000 0.0000  plane waves:    8624
 k-point  93 :   0.4100 0.0000 0.0000  plane waves:    8616
 k-point  94 :   0.4200 0.0000 0.0000  plane waves:    8620
 k-point  95 :   0.4300 0.0000 0.0000  plane waves:    8612
 k-point  96 :   0.4400 0.0000 0.0000  plane waves:    8644
 k-point  97 :   0.4500 0.0000 0.0000  plane waves:    8636
 k-point  98 :   0.4600 0.0000 0.0000  plane waves:    8604
 k-point  99 :   0.4700 0.0000 0.0000  plane waves:    8628
 k-point 100 :   0.4800 0.0000 0.0000  plane waves:    8624
 k-point 101 :   0.4900 0.0000 0.0000  plane waves:    8612
 k-point 102 :   0.5000 0.0000 0.0000  plane waves:    8596
 k-point 103 :   0.5000 0.0000 0.0000  plane waves:    8596
 k-point 104 :   0.4967 0.0067 0.0000  plane waves:    8608
 k-point 105 :   0.4933 0.0133 0.0000  plane waves:    8624
 k-point 106 :   0.4900 0.0200 0.0000  plane waves:    8624
 k-point 107 :   0.4867 0.0267 0.0000  plane waves:    8628
 k-point 108 :   0.4833 0.0333 0.0000  plane waves:    8628
 k-point 109 :   0.4800 0.0400 0.0000  plane waves:    8640
 k-point 110 :   0.4767 0.0467 0.0000  plane waves:    8636
 k-point 111 :   0.4733 0.0533 0.0000  plane waves:    8632
 k-point 112 :   0.4700 0.0600 0.0000  plane waves:    8640
 k-point 113 :   0.4667 0.0667 0.0000  plane waves:    8632
 k-point 114 :   0.4633 0.0733 0.0000  plane waves:    8632
 k-point 115 :   0.4600 0.0800 0.0000  plane waves:    8642
 k-point 116 :   0.4567 0.0867 0.0000  plane waves:    8634
 k-point 117 :   0.4533 0.0933 0.0000  plane waves:    8626
 k-point 118 :   0.4500 0.1000 0.0000  plane waves:    8630
 k-point 119 :   0.4467 0.1067 0.0000  plane waves:    8654
 k-point 120 :   0.4433 0.1133 0.0000  plane waves:    8646
 k-point 121 :   0.4400 0.1200 0.0000  plane waves:    8670
 k-point 122 :   0.4367 0.1267 0.0000  plane waves:    8662
 k-point 123 :   0.4333 0.1333 0.0000  plane waves:    8666
 k-point 124 :   0.4300 0.1400 0.0000  plane waves:    8662
 k-point 125 :   0.4267 0.1467 0.0000  plane waves:    8646
 k-point 126 :   0.4233 0.1533 0.0000  plane waves:    8630
 k-point 127 :   0.4200 0.1600 0.0000  plane waves:    8630
 k-point 128 :   0.4167 0.1667 0.0000  plane waves:    8638
 k-point 129 :   0.4133 0.1733 0.0000  plane waves:    8622
 k-point 130 :   0.4100 0.1800 0.0000  plane waves:    8618
 k-point 131 :   0.4067 0.1867 0.0000  plane waves:    8642
 k-point 132 :   0.4033 0.1933 0.0000  plane waves:    8650
 k-point 133 :   0.4000 0.2000 0.0000  plane waves:    8650
 k-point 134 :   0.3967 0.2067 0.0000  plane waves:    8646
 k-point 135 :   0.3933 0.2133 0.0000  plane waves:    8662
 k-point 136 :   0.3900 0.2200 0.0000  plane waves:    8670
 k-point 137 :   0.3867 0.2267 0.0000  plane waves:    8654
 k-point 138 :   0.3833 0.2333 0.0000  plane waves:    8630
 k-point 139 :   0.3800 0.2400 0.0000  plane waves:    8642
 k-point 140 :   0.3767 0.2467 0.0000  plane waves:    8642
 k-point 141 :   0.3733 0.2533 0.0000  plane waves:    8634
 k-point 142 :   0.3700 0.2600 0.0000  plane waves:    8634
 k-point 143 :   0.3667 0.2667 0.0000  plane waves:    8634
 k-point 144 :   0.3633 0.2733 0.0000  plane waves:    8658
 k-point 145 :   0.3600 0.2800 0.0000  plane waves:    8666
 k-point 146 :   0.3567 0.2867 0.0000  plane waves:    8662
 k-point 147 :   0.3533 0.2933 0.0000  plane waves:    8686
 k-point 148 :   0.3500 0.3000 0.0000  plane waves:    8674
 k-point 149 :   0.3467 0.3067 0.0000  plane waves:    8670
 k-point 150 :   0.3433 0.3133 0.0000  plane waves:    8670
 k-point 151 :   0.3400 0.3200 0.0000  plane waves:    8678
 k-point 152 :   0.3367 0.3267 0.0000  plane waves:    8678
 k-point 153 :   0.3333 0.3333 0.0000  plane waves:    8682

 maximum and minimum number of plane-waves per node :      1112     1032

 maximum number of plane-waves:      8686
 maximum index in each direction: 
   IXMAX=    5   IYMAX=    5   IZMAX=   46
   IXMIN=   -5   IYMIN=   -5   IZMIN=  -46


 parallel 3D FFT for wavefunctions:
    minimum data exchange during FFTs selected (reduces bandwidth)
 parallel 3D FFT for charge:
    minimum data exchange during FFTs selected (reduces bandwidth)


 total amount of memory used by VASP MPI-rank0    95900. kBytes
=======================================================================

   base      :      30000. kBytes
   nonl-proj :      36511. kBytes
   fftplans  :       1361. kBytes
   grid      :       5406. kBytes
   one-center:         62. kBytes
   wavefun   :      22560. kBytes
 
     INWAV:  cpu time    0.0000: real time    0.0001
 initial charge density was supplied:
 number of electron      24.0000024 magnetization       0.0000289     -0.0000307      2.8255174
 keeping initial charge density in first step


--------------------------------------------------------------------------------------------------------


 Maximum index for augmentation-charges          455 (set IRDMAX)


--------------------------------------------------------------------------------------------------------


 First call to EWALD:  gamma=   0.260
 Maximum number of real-space cells 6x 6x 1
 Maximum number of reciprocal cells 2x 2x11

    FEWALD:  cpu time    0.0015: real time    0.0019


--------------------------------------- Iteration      1(   1)  ---------------------------------------


    POTLOK:  cpu time    0.0978: real time    0.1186
    SETDIJ:  cpu time    0.6407: real time    0.6409
atom =   1  type =  1  l = 2
 
 onsite density matrix
 
spin component  1
 
  0.7373 -0.0000 -0.0000  0.1957 -0.0000      0.0000  0.0008  0.0000  0.0000  0.0043
 -0.0000  0.6170 -0.0000  0.0000  0.1957     -0.0008 -0.0000 -0.0000  0.0040  0.0000
 -0.0000 -0.0000  0.8871  0.0000  0.0000     -0.0000  0.0000  0.0000  0.0000 -0.0000
  0.1957  0.0000  0.0000  0.6170 -0.0000     -0.0000 -0.0040 -0.0000  0.0000  0.0008
 -0.0000  0.1957  0.0000 -0.0000  0.7373     -0.0043 -0.0000  0.0000 -0.0008  0.0000
 
spin component  2
 
  0.0000  0.0030  0.0027  0.0000 -0.0004      0.0004 -0.0000 -0.0000 -0.0030  0.0000
 -0.0032  0.0000 -0.0000  0.0010  0.0000     -0.0000  0.0010 -0.0051 -0.0000 -0.0032
 -0.0010  0.0000  0.0000 -0.0065 -0.0000      0.0000  0.0065  0.0000 -0.0000  0.0010
  0.0000  0.0010  0.0051  0.0000 -0.0032      0.0032 -0.0000  0.0000 -0.0010  0.0000
 -0.0004  0.0000  0.0000  0.0030  0.0000     -0.0000  0.0030 -0.0027  0.0000 -0.0004
 
spin component  3
 
  0.0000 -0.0032 -0.0010  0.0000 -0.0004     -0.0004  0.0000 -0.0000 -0.0032  0.0000
  0.0030  0.0000  0.0000  0.0010  0.0000      0.0000 -0.0010 -0.0065  0.0000 -0.0030
  0.0027 -0.0000  0.0000  0.0051  0.0000      0.0000  0.0051 -0.0000 -0.0000  0.0027
  0.0000  0.0010 -0.0065  0.0000  0.0030      0.0030  0.0000  0.0000  0.0010 -0.0000
 -0.0004  0.0000 -0.0000 -0.0032  0.0000     -0.0000  0.0032 -0.0010 -0.0000  0.0004
 
spin component  4
 
  0.0945  0.0000 -0.0000 -0.0737 -0.0000      0.0000  0.0002 -0.0000 -0.0000 -0.0015
  0.0000  0.1418 -0.0000 -0.0000 -0.0737     -0.0002 -0.0000  0.0000 -0.0022 -0.0000
 -0.0000 -0.0000  0.0478  0.0000  0.0000      0.0000 -0.0000 -0.0000  0.0000  0.0000
 -0.0737 -0.0000  0.0000  0.1418  0.0000      0.0000  0.0022 -0.0000  0.0000  0.0002
 -0.0000 -0.0737  0.0000  0.0000  0.0945      0.0015  0.0000 -0.0000 -0.0002  0.0000
 
 occupancies and eigenvectors
 
  o =  0.0406  v =  0.0071  0.0000 -0.0000 -0.0098 -0.0000  0.0028  0.4245 -0.0001  0.0020  0.5681      0.0000 -0.0098  0.0000 -0.0000  0.0071  0.5646  0.0023  0.0002  0.4219  0.0032
  o =  0.0407  v =  0.0000 -0.0000  0.0074 -0.0001 -0.0000 -0.4897 -0.2133 -0.0001 -0.3484 -0.2999      0.0000 -0.0001 -0.0046  0.0000  0.0000  0.3068 -0.3485  0.0002  0.2184 -0.4898
  o =  0.0476  v = -0.0020  0.0000 -0.0000  0.0119 -0.0000 -0.0002  0.0001  0.9999 -0.0002  0.0001      0.0000 -0.0119 -0.0000  0.0000  0.0020 -0.0000 -0.0000  0.0006 -0.0000 -0.0000
  o =  0.1948  v = -0.0057  0.0000  0.0000 -0.0008 -0.0000  0.0017 -0.5676  0.0000 -0.0024  0.4241      0.0000 -0.0007 -0.0000  0.0000 -0.0057  0.4224 -0.0017 -0.0000 -0.5652  0.0012
  o =  0.1962  v = -0.0000  0.0000 -0.0045 -0.0000 -0.0000 -0.3533  0.2899  0.0000  0.4965 -0.2062      0.0000 -0.0000  0.0027  0.0000 -0.0000  0.2097  0.4965 -0.0000 -0.2945 -0.3533
  o =  0.4706  v = -0.4151 -0.0005 -0.0000  0.5726  0.0004 -0.0000  0.0094 -0.0000 -0.0000  0.0080      0.0000  0.5723  0.0000  0.0000 -0.4149  0.0081  0.0000  0.0000  0.0094 -0.0000
  o =  0.4743  v =  0.4253 -0.0005  0.0000 -0.5646  0.0004 -0.0000  0.0000  0.0152 -0.0000 -0.0000      0.0000  0.5648  0.0000  0.0000 -0.4255 -0.0000  0.0000  0.0000  0.0000  0.0000
  o =  0.8798  v = -0.5648 -0.0001 -0.0002 -0.4254 -0.0002 -0.0000  0.0000  0.0079 -0.0000  0.0000      0.0000  0.4254 -0.0001  0.0000  0.5649  0.0000 -0.0000  0.0000  0.0000  0.0000
  o =  0.8841  v = -0.5725  0.0001 -0.0005 -0.4151  0.0002 -0.0000  0.0041  0.0000 -0.0000 -0.0030      0.0000 -0.4150  0.0003 -0.0000 -0.5724 -0.0030 -0.0000 -0.0000  0.0041 -0.0000
  o =  0.8871  v =  0.0004 -0.0001 -0.9772  0.0003 -0.0002 -0.0028 -0.0014 -0.0000 -0.0064 -0.0006      0.0000  0.0001  0.2121 -0.0000  0.0002  0.0006 -0.0064  0.0000  0.0014 -0.0028
 
     EDDAV:  cpu time   10.1843: real time   10.1883
       DOS:  cpu time    0.0066: real time    0.0066
    --------------------------------------------
      LOOP:  cpu time   10.9295: real time   10.9544

 eigenvalue-minimisations  : 22048
 total energy-change (2. order) : 0.1207200E+03  (-0.8278873E+03)
 number of electron      24.0000024 magnetization       0.0000289     -0.0000307      2.8255174
 augmentation part       24.0000024 magnetization       0.0000289     -0.0000307      2.8255174

 DIPCOR: dipole corrections for dipol
 direction  3 min pos   226,
 dipolmoment           0.000000     -0.000000     -0.072378 electrons x Angstroem
 Tr[quadrupol]       -25.680969

 energy correction for charged system         0.000000 eV
 dipol+quadrupol energy correction           -0.001499 eV
 added-field ion interaction          0.916052 eV  (added to PSCEN)


 Free energy of the ion-electron system (eV)
  ---------------------------------------------------
  alpha Z        PSCENC =         9.76654975
  Ewald energy   TEWEN  =      8354.29415379
  -Hartree energ DENC   =    -10151.41384551
  -exchange      EXHF   =         0.00000000
  -V(xc)+E(xc)   XCENC  =        39.57303278
  PAW double counting   =      2521.47159582    -2525.71840806
  entropy T*S    EENTRO =         0.00012515
  eigenvalues    EBANDS =      -275.20002676
  atomic energy  EATOM  =      2147.94684543
  Solvation  Ediel_sol  =         0.00000000
  ---------------------------------------------------
  free energy    TOTEN  =       120.72002239 eV

  energy without entropy =      120.71989724  energy(sigma->0) =      120.71999110


--------------------------------------------------------------------------------------------------------




--------------------------------------- Iteration      1(   2)  ---------------------------------------


     EDDAV:  cpu time   10.5024: real time   10.5068
       DOS:  cpu time    0.0067: real time    0.0067
    --------------------------------------------
      LOOP:  cpu time   10.5091: real time   10.5134

 eigenvalue-minimisations  : 24200
 total energy-change (2. order) :-0.1263364E+03  (-0.1193330E+03)
 number of electron      24.0000024 magnetization       0.0000289     -0.0000307      2.8255174
 augmentation part       24.0000024 magnetization       0.0000289     -0.0000307      2.8255174

 DIPCOR: dipole corrections for dipol
 direction  3 min pos   226,
 dipolmoment           0.000000     -0.000000     -0.072378 electrons x Angstroem
 Tr[quadrupol]       -25.680969

 energy correction for charged system         0.000000 eV
 dipol+quadrupol energy correction           -0.001499 eV
 added-field ion interaction          0.916052 eV  (added to PSCEN)


 Free energy of the ion-electron system (eV)
  ---------------------------------------------------
  alpha Z        PSCENC =         9.76654975
  Ewald energy   TEWEN  =      8354.29415379
  -Hartree energ DENC   =    -10151.41384551
  -exchange      EXHF   =         0.00000000
  -V(xc)+E(xc)   XCENC  =        39.57303278
  PAW double counting   =      2521.47159582    -2525.71840806
  entropy T*S    EENTRO =        -0.00012309
  eigenvalues    EBANDS =      -401.53618568
  atomic energy  EATOM  =      2147.94684543
  Solvation  Ediel_sol  =         0.00000000
  ---------------------------------------------------
  free energy    TOTEN  =        -5.61638478 eV

  energy without entropy =       -5.61626168  energy(sigma->0) =       -5.61635400


--------------------------------------------------------------------------------------------------------




--------------------------------------- Iteration      1(   3)  ---------------------------------------


     EDDAV:  cpu time   10.6465: real time   10.6507
       DOS:  cpu time    0.0067: real time    0.0067
    --------------------------------------------
      LOOP:  cpu time   10.6531: real time   10.6574

 eigenvalue-minimisations  : 24584
 total energy-change (2. order) :-0.1011877E+02  (-0.9841816E+01)
 number of electron      24.0000024 magnetization       0.0000289     -0.0000307      2.8255174
 augmentation part       24.0000024 magnetization       0.0000289     -0.0000307      2.8255174

 DIPCOR: dipole corrections for dipol
 direction  3 min pos   226,
 dipolmoment           0.000000     -0.000000     -0.072378 electrons x Angstroem
 Tr[quadrupol]       -25.680969

 energy correction for charged system         0.000000 eV
 dipol+quadrupol energy correction           -0.001499 eV
 added-field ion interaction          0.916052 eV  (added to PSCEN)


 Free energy of the ion-electron system (eV)
  ---------------------------------------------------
  alpha Z        PSCENC =         9.76654975
  Ewald energy   TEWEN  =      8354.29415379
  -Hartree energ DENC   =    -10151.41384551
  -exchange      EXHF   =         0.00000000
  -V(xc)+E(xc)   XCENC  =        39.57303278
  PAW double counting   =      2521.47159582    -2525.71840806
  entropy T*S    EENTRO =        -0.00002428
  eigenvalues    EBANDS =      -411.65505706
  atomic energy  EATOM  =      2147.94684543
  Solvation  Ediel_sol  =         0.00000000
  ---------------------------------------------------
  free energy    TOTEN  =       -15.73515734 eV

  energy without entropy =      -15.73513306  energy(sigma->0) =      -15.73515127


--------------------------------------------------------------------------------------------------------




--------------------------------------- Iteration      1(   4)  ---------------------------------------


     EDDAV:  cpu time   11.0561: real time   11.0596
       DOS:  cpu time    0.0067: real time    0.0067
    --------------------------------------------
      LOOP:  cpu time   11.0628: real time   11.0663

 eigenvalue-minimisations  : 26112
 total energy-change (2. order) :-0.2981556E+00  (-0.2967025E+00)
 number of electron      24.0000024 magnetization       0.0000289     -0.0000307      2.8255174
 augmentation part       24.0000024 magnetization       0.0000289     -0.0000307      2.8255174

 DIPCOR: dipole corrections for dipol
 direction  3 min pos   226,
 dipolmoment           0.000000     -0.000000     -0.072378 electrons x Angstroem
 Tr[quadrupol]       -25.680969

 energy correction for charged system         0.000000 eV
 dipol+quadrupol energy correction           -0.001499 eV
 added-field ion interaction          0.916052 eV  (added to PSCEN)


 Free energy of the ion-electron system (eV)
  ---------------------------------------------------
  alpha Z        PSCENC =         9.76654975
  Ewald energy   TEWEN  =      8354.29415379
  -Hartree energ DENC   =    -10151.41384551
  -exchange      EXHF   =         0.00000000
  -V(xc)+E(xc)   XCENC  =        39.57303278
  PAW double counting   =      2521.47159582    -2525.71840806
  entropy T*S    EENTRO =        -0.00004756
  eigenvalues    EBANDS =      -411.95318941
  atomic energy  EATOM  =      2147.94684543
  Solvation  Ediel_sol  =         0.00000000
  ---------------------------------------------------
  free energy    TOTEN  =       -16.03331297 eV

  energy without entropy =      -16.03326541  energy(sigma->0) =      -16.03330108


--------------------------------------------------------------------------------------------------------




[...]
  0.000   0.000   0.000   0.000   0.000   0.000   0.000   0.000   0.000   0.000   0.000   0.000   0.000   0.000   0.000   0.000
 total augmentation occupancy for first ion, spin component:           2
  0.000   0.000   0.000   0.000   0.000   0.000   0.000   0.000   0.000   0.000   0.000   0.000   0.000   0.000   0.000   0.000
  0.000   0.000   0.000   0.000   0.000   0.000   0.000   0.000   0.000   0.000   0.000   0.000   0.000   0.000   0.000   0.000
  0.000   0.000   0.000   0.000   0.000   0.000   0.000   0.000   0.000   0.000   0.000   0.000   0.000   0.000   0.000   0.000
  0.000   0.000   0.000   0.000   0.000   0.000   0.000   0.000   0.000   0.000   0.000   0.000   0.000   0.000   0.000   0.000
  0.000   0.000   0.000   0.000   0.000   0.000   0.000   0.000   0.000   0.000   0.000   0.000   0.000   0.000   0.000   0.000
  0.000   0.000   0.000   0.000   0.000   0.000   0.000   0.000   0.000   0.000   0.000   0.000   0.000   0.000   0.000   0.000
  0.000   0.000   0.000   0.000   0.000   0.000   0.000   0.000   0.000   0.000   0.000   0.000   0.000   0.000   0.000   0.000
  0.000   0.000   0.000   0.000   0.000   0.000   0.000   0.000   0.000   0.000   0.000   0.000   0.000   0.000   0.000   0.000
  0.000   0.000   0.000   0.000   0.000   0.000   0.000   0.000   0.000   0.000   0.000   0.000   0.000   0.000   0.000   0.000
  0.000   0.000   0.000   0.000   0.000   0.000   0.000   0.000   0.000   0.000   0.000   0.000   0.000   0.000   0.000   0.000
  0.000   0.000   0.000   0.000   0.000   0.000   0.000   0.000   0.000   0.000   0.000   0.000   0.000   0.000   0.000   0.000
  0.000   0.000   0.000   0.000   0.000   0.000   0.000   0.000   0.000   0.000   0.000   0.000   0.000   0.000   0.000   0.000
  0.000   0.000   0.000   0.000   0.000   0.000   0.000   0.000   0.000   0.000   0.000   0.000   0.000   0.000   0.000   0.000
  0.000   0.000   0.000   0.000   0.000   0.000   0.000   0.000   0.000   0.000   0.000   0.000   0.000   0.000   0.000   0.000
  0.000   0.000   0.000   0.000   0.000   0.000   0.000   0.000   0.000   0.000   0.000   0.000   0.000   0.000   0.000   0.000
  0.000   0.000   0.000   0.000   0.000   0.000   0.000   0.000   0.000   0.000   0.000   0.000   0.000   0.000   0.000   0.000
  0.000   0.000   0.000   0.000   0.000   0.000   0.000   0.000   0.000   0.000   0.000   0.000   0.000   0.000   0.000   0.000
  0.000   0.000   0.000   0.000   0.000   0.000   0.000   0.000   0.000   0.000   0.000   0.000   0.000   0.000   0.000   0.000
 total augmentation occupancy for first ion, spin component:           3
  0.000   0.000   0.000   0.000   0.000   0.000   0.000   0.000   0.000   0.000   0.000   0.000   0.000   0.000   0.000   0.000
  0.000   0.000   0.000   0.000   0.000   0.000   0.000   0.000   0.000   0.000   0.000   0.000   0.000   0.000   0.000   0.000
  0.000   0.000   0.000   0.000   0.000   0.000   0.000   0.000   0.000   0.000   0.000   0.000   0.000   0.000   0.000   0.000
  0.000   0.000   0.000   0.000   0.000   0.000   0.000   0.000   0.000   0.000   0.000   0.000   0.000   0.000   0.000   0.000
  0.000   0.000   0.000   0.000   0.000   0.000   0.000   0.000   0.000   0.000   0.000   0.000   0.000   0.000   0.000   0.000
  0.000   0.000   0.000   0.000   0.000   0.000   0.000   0.000   0.000   0.000   0.000   0.000   0.000   0.000   0.000   0.000
  0.000   0.000   0.000   0.000   0.000   0.000   0.000   0.000   0.000   0.000   0.000   0.000   0.000   0.000   0.000   0.000
  0.000   0.000   0.000   0.000   0.000   0.000   0.000   0.000   0.000   0.000   0.000   0.000   0.000   0.000   0.000   0.000
  0.000   0.000   0.000   0.000   0.000   0.000   0.000   0.000   0.000   0.000   0.000   0.000   0.000   0.000   0.000   0.000
  0.000   0.000   0.000   0.000   0.000   0.000   0.000   0.000   0.000   0.000   0.000   0.000   0.000   0.000   0.000   0.000
  0.000   0.000   0.000   0.000   0.000   0.000   0.000   0.000   0.000   0.000   0.000   0.000   0.000   0.000   0.000   0.000
  0.000   0.000   0.000   0.000   0.000   0.000   0.000   0.000   0.000   0.000   0.000   0.000   0.000   0.000   0.000   0.000
  0.000   0.000   0.000   0.000   0.000   0.000   0.000   0.000   0.000   0.000   0.000   0.000   0.000   0.000   0.000   0.000
  0.000   0.000   0.000   0.000   0.000   0.000   0.000   0.000   0.000   0.000   0.000   0.000   0.000   0.000   0.000   0.000
  0.000   0.000   0.000   0.000   0.000   0.000   0.000   0.000   0.000   0.000   0.000   0.000   0.000   0.000   0.000   0.000
  0.000   0.000   0.000   0.000   0.000   0.000   0.000   0.000   0.000   0.000   0.000   0.000   0.000   0.000   0.000   0.000
  0.000   0.000   0.000   0.000   0.000   0.000   0.000   0.000   0.000   0.000   0.000   0.000   0.000   0.000   0.000   0.000
  0.000   0.000   0.000   0.000   0.000   0.000   0.000   0.000   0.000   0.000   0.000   0.000   0.000   0.000   0.000   0.000
 total augmentation occupancy for first ion, spin component:           4
  0.833   0.000   0.000   0.000   0.000   0.000   0.000   0.000   0.000   0.000   0.000   0.000   0.000   0.000   0.000   0.000
  0.000   0.833   0.000   0.000   0.000   0.000   0.000   0.000   0.000   0.000   0.000   0.000   0.000   0.000   0.000   0.000
  0.000   0.000   0.833   0.000   0.000   0.000   0.000   0.000   0.000   0.000   0.000   0.000   0.000   0.000   0.000   0.000
  0.000   0.000   0.000   0.000   0.000   0.000   0.000   0.000   0.000   0.000   0.000   0.000   0.000   0.000   0.000   0.000
  0.000   0.000   0.000   0.000   0.000   0.000   0.000   0.000   0.000   0.000   0.000   0.000   0.000   0.000   0.000   0.000
  0.000   0.000   0.000   0.000   0.000   0.000   0.000   0.000   0.000   0.000   0.000   0.000   0.000   0.000   0.000   0.000
  0.000   0.000   0.000   0.000   0.000   0.000   0.417   0.000   0.000   0.000   0.000   0.000   0.000   0.000   0.000   0.000
  0.000   0.000   0.000   0.000   0.000   0.000   0.000   0.417   0.000   0.000   0.000   0.000   0.000   0.000   0.000   0.000
  0.000   0.000   0.000   0.000   0.000   0.000   0.000   0.000   0.417   0.000   0.000   0.000   0.000   0.000   0.000   0.000
  0.000   0.000   0.000   0.000   0.000   0.000   0.000   0.000   0.000   0.417   0.000   0.000   0.000   0.000   0.000   0.000
  0.000   0.000   0.000   0.000   0.000   0.000   0.000   0.000   0.000   0.000   0.417   0.000   0.000   0.000   0.000   0.000
  0.000   0.000   0.000   0.000   0.000   0.000   0.000   0.000   0.000   0.000   0.000   0.000   0.000   0.000   0.000   0.000
  0.000   0.000   0.000   0.000   0.000   0.000   0.000   0.000   0.000   0.000   0.000   0.000   0.000   0.000   0.000   0.000
  0.000   0.000   0.000   0.000   0.000   0.000   0.000   0.000   0.000   0.000   0.000   0.000   0.000   0.000   0.000   0.000
  0.000   0.000   0.000   0.000   0.000   0.000   0.000   0.000   0.000   0.000   0.000   0.000   0.000   0.000   0.000   0.000
  0.000   0.000   0.000   0.000   0.000   0.000   0.000   0.000   0.000   0.000   0.000   0.000   0.000   0.000   0.000   0.000
  0.000   0.000   0.000   0.000   0.000   0.000   0.000   0.000   0.000   0.000   0.000   0.000   0.000   0.000   0.000   0.000
  0.000   0.000   0.000   0.000   0.000   0.000   0.000   0.000   0.000   0.000   0.000   0.000   0.000   0.000   0.000   0.000


------------------------ aborting loop because EDIFF is reached ----------------------------------------





 total charge

# of ion       s       p       d       tot
------------------------------------------
    1        0.286   6.251   4.175  10.712
    2        1.346   2.363   0.000   3.709
    3        1.395   1.888   0.036   3.319
--------------------------------------------------
tot          3.027  10.501   4.211  17.739



 magnetization (x)

# of ion       s       p       d       tot
------------------------------------------
    1        0.001   0.001  -0.002  -0.001
    2        0.000  -0.002   0.000  -0.002
    3        0.001   0.001   0.000   0.002
--------------------------------------------------
tot          0.002  -0.001  -0.002  -0.001



 magnetization (y)

# of ion       s       p       d       tot
------------------------------------------
    1       -0.000  -0.000   0.001   0.000
    2       -0.000   0.000   0.000   0.000
    3       -0.000  -0.000  -0.000  -0.001
--------------------------------------------------
tot         -0.001  -0.000   0.001   0.000



 magnetization (z)

# of ion       s       p       d       tot
------------------------------------------
    1        0.039   0.028   3.111   3.177
    2       -0.008  -0.188   0.000  -0.196
    3       -0.002  -0.122   0.001  -0.122
--------------------------------------------------
tot          0.030  -0.283   3.112   2.859
 
    CHARGE:  cpu time    0.3761: real time    0.3762
    FORLOC:  cpu time    0.0021: real time    0.0021
    FORNL :  cpu time    0.4354: real time    0.4357
    STRESS:  cpu time    1.1740: real time    1.1743
    FORCOR:  cpu time    0.0875: real time    0.0880
    FORHAR:  cpu time    0.0087: real time    0.0087
    OFIELD:  cpu time    0.0002: real time    0.0002

 ---------------------------------------------------------------------------------------------

         DFTD3 V3.0 Rev 1        
 IVDW         = 12
 DF pbe       
 parameters
 VDW_S6       =    1.0000
 VDW_S8       =    0.7875
 VDW_A1       =    0.4289
 VDW_A2       =    4.4407
 k1-k3        =   16.0000    1.3333   -4.0000
 VDW_RADIUS   =   50.2022 A
 VDW_CNRADIUS =   21.1671 A
 Edisp (eV)   -1.01359

 E6    (eV) :    -0.5536
 E8    (eV) :    -0.4600
 % E8        : 45.38
    FORVDW:  cpu time    0.0087: real time    0.0087

  FORCE on cell =-STRESS in cart. coord.  units (eV):
  Direction    XX          YY          ZZ          XY          YZ          ZX
  --------------------------------------------------------------------------------------
  Alpha Z     8.85200     8.85200     8.85200
  Ewald    9438.56788  9438.56739-10522.84153    -0.00020    -0.00018     0.00009
  Hartree  9851.97824  9852.76426 -9535.30213    -0.95955     0.03997    -0.21332
  E(xc)    -110.99332  -111.01207  -111.65161    -0.05176    -0.01571    -0.06065
  Local  -19654.42809-19655.55826 19686.03979    -0.27078    -0.82644    -1.95231
  n-local   146.97128   147.61357   151.03595     0.02356     0.10484     0.63107
  augment    48.32094    48.02044    47.19655     0.22710     0.08330    -0.03899
  Kinetic   274.54387   274.84370   280.42489     2.00662     0.37342     1.04741
  Fock        0.00000     0.00000     0.00000     0.00000     0.00000     0.00000
  vdW        -1.02364    -1.02364    -0.38562    -0.00000     0.00000     0.00000
  -------------------------------------------------------------------------------------
  Total       2.78914     3.06738     3.36828     0.97498    -0.24081    -0.58670
  in kB      14.13580    15.54593    17.07096     4.94135    -1.22046    -2.97347
  external pressure =       15.58 kB  Pullay stress =        0.00 kB


 VOLUME and BASIS-vectors are now :
 -----------------------------------------------------------------------------
  energy-cutoff  :      330.00
  volume of cell :      316.13
      direct lattice vectors                 reciprocal lattice vectors
     3.427808124  0.000000218  0.000000000     0.291731604  0.168431348  0.000000000
    -1.713904293  2.968568820  0.000000000    -0.000000021  0.336862651 -0.000000000
    -0.000000000  0.000000000 31.066888743     0.000000000  0.000000000  0.032188611

  length of vectors
     3.427808124  3.427808158 31.066888743     0.336862655  0.336862651  0.032188611


 FORCES acting on ions
    electron-ion (+dipol)            ewald-force                    non-local-force                 convergence-correction
 -----------------------------------------------------------------------------------------------
   0.693E+00 0.213E+00 0.443E+02   0.222E-03 -.742E-04 -.528E+02   -.102E+01 -.353E+00 0.560E+01   -.453E+00 -.128E+00 0.275E+01
   0.153E+01 0.735E+00 0.729E+03   -.165E-03 0.100E-03 -.731E+03   -.493E+00 -.341E+00 0.284E+01   -.495E+00 -.204E+00 -.104E+01
   0.503E+00 0.232E+00 -.782E+03   -.570E-04 -.260E-04 0.784E+03   -.276E+00 -.149E+00 -.441E+01   -.810E-02 -.464E-02 0.238E+01
 -----------------------------------------------------------------------------------------------
   0.273E+01 0.118E+01 -.807E+01   -.985E-14 -.116E-13 0.114E-12   -.179E+01 -.843E+00 0.403E+01   -.957E+00 -.337E+00 0.408E+01
 
 
 POSITION                                       TOTAL-FORCE (eV/Angst)
 -----------------------------------------------------------------------------------
     -0.00000      0.00000      3.39361        -0.775561     -0.268831     -0.191581
      1.71391      0.98952      2.14694         0.551184      0.189826      0.196789
      0.00000      1.97905      5.43024         0.224377      0.079005     -0.005207
 -----------------------------------------------------------------------------------
    total drift:                               -0.016618     -0.000073      0.037576


--------------------------------------------------------------------------------------------------------



  FREE ENERGIE OF THE ION-ELECTRON SYSTEM (eV)
  ---------------------------------------------------
  free  energy   TOTEN  =       -17.05463529 eV

  energy  without entropy=      -17.05458791  energy(sigma->0) =      -17.05462345
 


--------------------------------------------------------------------------------------------------------


    POTLOK:  cpu time    0.8125: real time    0.8130


--------------------------------------------------------------------------------------------------------


 writing wavefunctions
     LOOP+:  cpu time  102.3511: real time  119.6369
 vacuum level on the upper side and lower side of the slab         1.712         2.999
    4ORBIT:  cpu time    0.0000: real time    0.0000

 Spin-Orbit-Coupling matrix elements

 Ion:    1  E_soc:     -0.0266310
 l=   1
     0.0000000    -0.0031121    -0.0029093
    -0.0031121     0.0000000    -0.0031463
    -0.0029093    -0.0031463     0.0000000
 l=   2
     0.0000000    -0.0001618     0.0000000    -0.0001406    -0.0019555
    -0.0001618     0.0000000    -0.0003839    -0.0009131    -0.0001268
     0.0000000    -0.0003839     0.0000000    -0.0003623     0.0000000
    -0.0001406    -0.0009131    -0.0003623     0.0000000    -0.0001038
    -0.0019555    -0.0001268     0.0000000    -0.0001038     0.0000000
 l=   3
     0.0000000     0.0000000     0.0000000     0.0000000     0.0000000     0.0000000     0.0000000
     0.0000000     0.0000000     0.0000000     0.0000000     0.0000000     0.0000000     0.0000000
     0.0000000     0.0000000     0.0000000     0.0000000     0.0000000     0.0000000     0.0000000
     0.0000000     0.0000000     0.0000000     0.0000000     0.0000000     0.0000000     0.0000000
     0.0000000     0.0000000     0.0000000     0.0000000     0.0000000     0.0000000     0.0000000
     0.0000000     0.0000000     0.0000000     0.0000000     0.0000000     0.0000000     0.0000000
     0.0000000     0.0000000     0.0000000     0.0000000     0.0000000     0.0000000     0.0000000

 Ion:    2  E_soc:     -0.0018589
 l=   1
     0.0000000    -0.0004002    -0.0001270
    -0.0004002     0.0000000    -0.0004022
    -0.0001270    -0.0004022     0.0000000
 l=   2
     0.0000000     0.0000000     0.0000000     0.0000000     0.0000000
     0.0000000     0.0000000     0.0000000     0.0000000     0.0000000
     0.0000000     0.0000000     0.0000000     0.0000000     0.0000000
     0.0000000     0.0000000     0.0000000     0.0000000     0.0000000
     0.0000000     0.0000000     0.0000000     0.0000000     0.0000000
 l=   3
     0.0000000     0.0000000     0.0000000     0.0000000     0.0000000     0.0000000     0.0000000
     0.0000000     0.0000000     0.0000000     0.0000000     0.0000000     0.0000000     0.0000000
     0.0000000     0.0000000     0.0000000     0.0000000     0.0000000     0.0000000     0.0000000
     0.0000000     0.0000000     0.0000000     0.0000000     0.0000000     0.0000000     0.0000000
     0.0000000     0.0000000     0.0000000     0.0000000     0.0000000     0.0000000     0.0000000
     0.0000000     0.0000000     0.0000000     0.0000000     0.0000000     0.0000000     0.0000000
     0.0000000     0.0000000     0.0000000     0.0000000     0.0000000     0.0000000     0.0000000

 Ion:    3  E_soc:     -0.2114459
 l=   1
     0.0000000    -0.0367075    -0.0348316
    -0.0367075     0.0000000    -0.0339015
    -0.0348316    -0.0339015     0.0000000
 l=   2
     0.0000000    -0.0000239     0.0000000    -0.0000209    -0.0001700
    -0.0000239     0.0000000    -0.0000181     0.0000199    -0.0000198
     0.0000000    -0.0000181     0.0000000    -0.0000237     0.0000000
    -0.0000209     0.0000199    -0.0000237     0.0000000    -0.0000258
    -0.0001700    -0.0000198     0.0000000    -0.0000258     0.0000000
 l=   3
     0.0000000     0.0000000     0.0000000     0.0000000     0.0000000     0.0000000     0.0000000
     0.0000000     0.0000000     0.0000000     0.0000000     0.0000000     0.0000000     0.0000000
     0.0000000     0.0000000     0.0000000     0.0000000     0.0000000     0.0000000     0.0000000
     0.0000000     0.0000000     0.0000000     0.0000000     0.0000000     0.0000000     0.0000000
     0.0000000     0.0000000     0.0000000     0.0000000     0.0000000     0.0000000     0.0000000
     0.0000000     0.0000000     0.0000000     0.0000000     0.0000000     0.0000000     0.0000000
     0.0000000     0.0000000     0.0000000     0.0000000     0.0000000     0.0000000     0.0000000



 total charge

# of ion       s       p       d       tot
------------------------------------------
    1        0.286   6.251   4.175  10.712
    2        1.346   2.363   0.000   3.709
    3        1.395   1.888   0.036   3.319
--------------------------------------------------
tot          3.027  10.501   4.211  17.739



 magnetization (x)

# of ion       s       p       d       tot
------------------------------------------
    1        0.001   0.001  -0.002  -0.001
    2        0.000  -0.002   0.000  -0.002
    3        0.001   0.001   0.000   0.002
--------------------------------------------------
tot          0.002  -0.001  -0.002  -0.001



 magnetization (y)

# of ion       s       p       d       tot
------------------------------------------
    1       -0.000  -0.000   0.001   0.000
    2       -0.000   0.000   0.000   0.000
    3       -0.000  -0.000  -0.000  -0.001
--------------------------------------------------
tot         -0.001  -0.000   0.001   0.000



 magnetization (z)

# of ion       s       p       d       tot
------------------------------------------
    1        0.039   0.028   3.111   3.177
    2       -0.008  -0.188   0.000  -0.196
    3       -0.002  -0.122   0.001  -0.122
--------------------------------------------------
tot          0.030  -0.283   3.112   2.859
 

 total amount of memory used by VASP MPI-rank0    95900. kBytes
=======================================================================

   base      :      30000. kBytes
   nonl-proj :      36511. kBytes
   fftplans  :       1361. kBytes
   grid      :       5406. kBytes
   one-center:         62. kBytes
   wavefun   :      22560. kBytes
 
  
  
 General timing and accounting informations for this job:
 ========================================================
  
                  Total CPU time used (sec):      118.558
                            User time (sec):      117.354
                          System time (sec):        1.204
                         Elapsed time (sec):      141.765
  
                   Maximum memory used (kb):      164232.
                   Average memory used (kb):          N/A
  
                          Minor page faults:        43355
                          Major page faults:            0
                 Voluntary context switches:         2223
