   3   3   1   0
  0.1053756E+03  0.3427808E-09  0.3427808E-09  0.3106689E-08  0.5000000E-15
  1.000000000000000E-004
  CAR 
 unknown system                          
     11.45759321    -50.37824907 2001     -2.98634595      1.00000000
    -50.378  0.0000E+00  0.0000E+00
    -50.347  0.0000E+00  0.0000E+00
    -50.316  0.0000E+00  0.0000E+00
    -50.285  0.0000E+00  0.0000E+00
    -50.255  0.0000E+00  0.0000E+00
    -50.224  0.0000E+00  0.0000E+00
    -50.193  0.0000E+00  0.0000E+00
    -50.162  0.0000E+00  0.0000E+00
    -50.131  0.0000E+00  0.0000E+00
    -50.100  0.0000E+00  0.0000E+00
    -50.069  0.0000E+00  0.0000E+00
    -50.038  0.0000E+00  0.0000E+00
    -50.007  0.0000E+00  0.0000E+00
    -49.976  0.0000E+00  0.0000E+00
    -49.945  0.0000E+00  0.0000E+00
    -49.914  0.0000E+00  0.0000E+00
    -49.884  0.0000E+00  0.0000E+00
    -49.853  0.0000E+00  0.0000E+00
    -49.822  0.0000E+00  0.0000E+00
    -49.791  0.0000E+00  0.0000E+00
    -49.760  0.0000E+00  0.0000E+00
    -49.729  0.0000E+00  0.0000E+00
    -49.698  0.0000E+00  0.0000E+00
    -49.667  0.0000E+00  0.0000E+00
    -49.636  0.0000E+00  0.0000E+00
    -49.605  0.0000E+00  0.0000E+00
    -49.574  0.0000E+00  0.0000E+00
    -49.543  0.0000E+00  0.0000E+00
    -49.513  0.0000E+00  0.0000E+00
    -49.482  0.0000E+00  0.0000E+00
    -49.451  0.0000E+00  0.0000E+00
    -49.420  0.0000E+00  0.0000E+00
    -49.389  0.0000E+00  0.0000E+00
    -49.358  0.0000E+00  0.0000E+00
    -49.327  0.0000E+00  0.0000E+00
    -49.296  0.0000E+00  0.0000E+00
    -49.265  0.0000E+00  0.0000E+00
    -49.234  0.0000E+00  0.0000E+00
    -49.203  0.0000E+00  0.0000E+00
    -49.172  0.0000E+00  0.0000E+00
    -49.142  0.0000E+00  0.0000E+00
    -49.111  0.0000E+00  0.0000E+00
    -49.080  0.0000E+00  0.0000E+00
    -49.049  0.0000E+00  0.0000E+00
    -49.018  0.0000E+00  0.0000E+00
    -48.987  0.0000E+00  0.0000E+00
    -48.956  0.0000E+00  0.0000E+00
    -48.925  0.0000E+00  0.0000E+00
    -48.894  0.0000E+00  0.0000E+00
    -48.863  0.0000E+00  0.0000E+00
    -48.832  0.0000E+00  0.0000E+00
    -48.801  0.0000E+00  0.0000E+00
    -48.771  0.0000E+00  0.0000E+00
    -48.740  0.0000E+00  0.0000E+00
    -48.709  0.0000E+00  0.0000E+00
    -48.678  0.0000E+00  0.0000E+00
    -48.647  0.0000E+00  0.0000E+00
    -48.616  0.0000E+00  0.0000E+00
    -48.585  0.0000E+00  0.0000E+00
    -48.554  0.0000E+00  0.0000E+00
    -48.523  0.0000E+00  0.0000E+00
    -48.492  0.0000E+00  0.0000E+00
    -48.461  0.0000E+00  0.0000E+00
    -48.430  0.0000E+00  0.0000E+00
    -48.400  0.0000E+00  0.0000E+00
    -48.369  0.0000E+00  0.0000E+00
    -48.338  0.0000E+00  0.0000E+00
    -48.307  0.0000E+00  0.0000E+00
    -48.276  0.0000E+00  0.0000E+00
    -48.245  0.0000E+00  0.0000E+00
    -48.214  0.0000E+00  0.0000E+00
    -48.183  0.0000E+00  0.0000E+00
    -48.152  0.0000E+00  0.0000E+00
    -48.121  0.0000E+00  0.0000E+00
    -48.090  0.0000E+00  0.0000E+00
    -48.059  0.0000E+00  0.0000E+00
    -48.028  0.0000E+00  0.0000E+00
    -47.998  0.0000E+00  0.0000E+00
    -47.967  0.0000E+00  0.0000E+00
    -47.936  0.0000E+00  0.0000E+00
    -47.905  0.0000E+00  0.0000E+00
    -47.874  0.0000E+00  0.0000E+00
    -47.843  0.0000E+00  0.0000E+00
    -47.812  0.0000E+00  0.0000E+00
    -47.781  0.0000E+00  0.0000E+00
    -47.750  0.0000E+00  0.0000E+00
    -47.719  0.0000E+00  0.0000E+00
    -47.688  0.0000E+00  0.0000E+00
    -47.657  0.0000E+00  0.0000E+00
    -47.627  0.0000E+00  0.0000E+00
    -47.596  0.0000E+00  0.0000E+00
    -47.565  0.1284E+03  0.1603E+00
    -47.534  0.2473E+02  0.1000E+01
    -47.503  0.0000E+00  0.1000E+01
    -47.472  0.0000E+00  0.1000E+01
    -47.441  0.0000E+00  0.1000E+01
    -47.410  0.0000E+00  0.1000E+01
    -47.379  0.0000E+00  0.1000E+01
    -47.348  0.0000E+00  0.1000E+01
    -47.317  0.0000E+00  0.1000E+01
    -47.286  0.0000E+00  0.1000E+01
    -47.256  0.0000E+00  0.1000E+01
    -47.225  0.0000E+00  0.1000E+01
    -47.194  0.3234E+02  0.2000E+01
    -47.163  0.0000E+00  0.2000E+01
    -47.132  0.0000E+00  0.2000E+01
    -47.101  0.0000E+00  0.2000E+01
    -47.070  0.0000E+00  0.2000E+01
    -47.039  0.0000E+00  0.2000E+01
    -47.008  0.0000E+00  0.2000E+01
    -46.977  0.0000E+00  0.2000E+01
    -46.946  0.0000E+00  0.2000E+01
    -46.915  0.0000E+00  0.2000E+01
    -46.885  0.0000E+00  0.2000E+01
    -46.854  0.0000E+00  0.2000E+01
    -46.823  0.9774E+02  0.2139E+01
    -46.792  0.2580E+02  0.3000E+01
    -46.761  0.0000E+00  0.3000E+01
    -46.730  0.0000E+00  0.3000E+01
    -46.699  0.0000E+00  0.3000E+01
    -46.668  0.0000E+00  0.3000E+01
    -46.637  0.0000E+00  0.3000E+01
    -46.606  0.0000E+00  0.3000E+01
    -46.575  0.0000E+00  0.3000E+01
    -46.544  0.0000E+00  0.3000E+01
    -46.514  0.0000E+00  0.3000E+01
    -46.483  0.0000E+00  0.3000E+01
    -46.452  0.0000E+00  0.3000E+01
    -46.421  0.0000E+00  0.3000E+01
    -46.390  0.0000E+00  0.3000E+01
    -46.359  0.0000E+00  0.3000E+01
    -46.328  0.0000E+00  0.3000E+01
    -46.297  0.0000E+00  0.3000E+01
    -46.266  0.0000E+00  0.3000E+01
    -46.235  0.0000E+00  0.3000E+01
    -46.204  0.0000E+00  0.3000E+01
    -46.173  0.0000E+00  0.3000E+01
    -46.142  0.0000E+00  0.3000E+01
    -46.112  0.0000E+00  0.3000E+01
    -46.081  0.0000E+00  0.3000E+01
    -46.050  0.0000E+00  0.3000E+01
    -46.019  0.0000E+00  0.3000E+01
    -45.988  0.0000E+00  0.3000E+01
    -45.957  0.0000E+00  0.3000E+01
    -45.926  0.0000E+00  0.3000E+01
    -45.895  0.0000E+00  0.3000E+01
    -45.864  0.0000E+00  0.3000E+01
    -45.833  0.0000E+00  0.3000E+01
    -45.802  0.0000E+00  0.3000E+01
    -45.771  0.0000E+00  0.3000E+01
    -45.741  0.0000E+00  0.3000E+01
    -45.710  0.0000E+00  0.3000E+01
    -45.679  0.0000E+00  0.3000E+01
    -45.648  0.0000E+00  0.3000E+01
    -45.617  0.0000E+00  0.3000E+01
    -45.586  0.0000E+00  0.3000E+01
    -45.555  0.0000E+00  0.3000E+01
    -45.524  0.0000E+00  0.3000E+01
    -45.493  0.0000E+00  0.3000E+01
    -45.462  0.0000E+00  0.3000E+01
    -45.431  0.0000E+00  0.3000E+01
    -45.400  0.0000E+00  0.3000E+01
    -45.370  0.0000E+00  0.3000E+01
    -45.339  0.0000E+00  0.3000E+01
    -45.308  0.0000E+00  0.3000E+01
    -45.277  0.0000E+00  0.3000E+01
    -45.246  0.0000E+00  0.3000E+01
    -45.215  0.0000E+00  0.3000E+01
    -45.184  0.0000E+00  0.3000E+01
    -45.153  0.0000E+00  0.3000E+01
    -45.122  0.0000E+00  0.3000E+01
    -45.091  0.0000E+00  0.3000E+01
    -45.060  0.0000E+00  0.3000E+01
    -45.029  0.0000E+00  0.3000E+01
    -44.999  0.0000E+00  0.3000E+01
    -44.968  0.0000E+00  0.3000E+01
    -44.937  0.0000E+00  0.3000E+01
    -44.906  0.0000E+00  0.3000E+01
    -44.875  0.0000E+00  0.3000E+01
    -44.844  0.0000E+00  0.3000E+01
    -44.813  0.0000E+00  0.3000E+01
    -44.782  0.0000E+00  0.3000E+01
    -44.751  0.0000E+00  0.3000E+01
    -44.720  0.0000E+00  0.3000E+01
    -44.689  0.0000E+00  0.3000E+01
    -44.658  0.0000E+00  0.3000E+01
    -44.628  0.0000E+00  0.3000E+01
    -44.597  0.0000E+00  0.3000E+01
    -44.566  0.0000E+00  0.3000E+01
    -44.535  0.0000E+00  0.3000E+01
    -44.504  0.0000E+00  0.3000E+01
    -44.473  0.0000E+00  0.3000E+01
    -44.442  0.0000E+00  0.3000E+01
    -44.411  0.0000E+00  0.3000E+01
    -44.380  0.0000E+00  0.3000E+01
    -44.349  0.0000E+00  0.3000E+01
    -44.318  0.0000E+00  0.3000E+01
    -44.287  0.1424E+03  0.3230E+01
    -44.257  0.2137E+02  0.4000E+01
    -44.226  0.0000E+00  0.4000E+01
    -44.195  0.0000E+00  0.4000E+01
    -44.164  0.0000E+00  0.4000E+01
    -44.133  0.0000E+00  0.4000E+01
    -44.102  0.0000E+00  0.4000E+01
    -44.071  0.0000E+00  0.4000E+01
    -44.040  0.0000E+00  0.4000E+01
    -44.009  0.0000E+00  0.4000E+01
    -43.978  0.0000E+00  0.4000E+01
    -43.947  0.0000E+00  0.4000E+01
    -43.916  0.0000E+00  0.4000E+01
    -43.885  0.3234E+02  0.5000E+01
    -43.855  0.0000E+00  0.5000E+01
    -43.824  0.0000E+00  0.5000E+01
    -43.793  0.0000E+00  0.5000E+01
    -43.762  0.0000E+00  0.5000E+01
    -43.731  0.0000E+00  0.5000E+01
    -43.700  0.0000E+00  0.5000E+01
    -43.669  0.4658E+02  0.5979E+01
    -43.638  0.2688E+00  0.6000E+01
    -43.607  0.0000E+00  0.6000E+01
    -43.576  0.0000E+00  0.6000E+01
    -43.545  0.0000E+00  0.6000E+01
    -43.514  0.0000E+00  0.6000E+01
    -43.484  0.0000E+00  0.6000E+01
    -43.453  0.0000E+00  0.6000E+01
    -43.422  0.0000E+00  0.6000E+01
    -43.391  0.0000E+00  0.6000E+01
    -43.360  0.0000E+00  0.6000E+01
    -43.329  0.0000E+00  0.6000E+01
    -43.298  0.0000E+00  0.6000E+01
    -43.267  0.0000E+00  0.6000E+01
    -43.236  0.0000E+00  0.6000E+01
    -43.205  0.0000E+00  0.6000E+01
    -43.174  0.0000E+00  0.6000E+01
    -43.143  0.0000E+00  0.6000E+01
    -43.113  0.0000E+00  0.6000E+01
    -43.082  0.0000E+00  0.6000E+01
    -43.051  0.0000E+00  0.6000E+01
    -43.020  0.0000E+00  0.6000E+01
    -42.989  0.0000E+00  0.6000E+01
    -42.958  0.0000E+00  0.6000E+01
    -42.927  0.0000E+00  0.6000E+01
    -42.896  0.0000E+00  0.6000E+01
    -42.865  0.0000E+00  0.6000E+01
    -42.834  0.0000E+00  0.6000E+01
    -42.803  0.0000E+00  0.6000E+01
    -42.772  0.0000E+00  0.6000E+01
    -42.742  0.0000E+00  0.6000E+01
    -42.711  0.0000E+00  0.6000E+01
    -42.680  0.0000E+00  0.6000E+01
    -42.649  0.0000E+00  0.6000E+01
    -42.618  0.0000E+00  0.6000E+01
    -42.587  0.0000E+00  0.6000E+01
    -42.556  0.0000E+00  0.6000E+01
    -42.525  0.0000E+00  0.6000E+01
    -42.494  0.0000E+00  0.6000E+01
    -42.463  0.0000E+00  0.6000E+01
    -42.432  0.0000E+00  0.6000E+01
    -42.401  0.0000E+00  0.6000E+01
    -42.371  0.0000E+00  0.6000E+01
    -42.340  0.0000E+00  0.6000E+01
    -42.309  0.0000E+00  0.6000E+01
    -42.278  0.0000E+00  0.6000E+01
    -42.247  0.0000E+00  0.6000E+01
    -42.216  0.0000E+00  0.6000E+01
    -42.185  0.0000E+00  0.6000E+01
    -42.154  0.0000E+00  0.6000E+01
    -42.123  0.0000E+00  0.6000E+01
    -42.092  0.0000E+00  0.6000E+01
    -42.061  0.0000E+00  0.6000E+01
    -42.030  0.0000E+00  0.6000E+01
    -41.999  0.0000E+00  0.6000E+01
    -41.969  0.0000E+00  0.6000E+01
    -41.938  0.0000E+00  0.6000E+01
    -41.907  0.0000E+00  0.6000E+01
    -41.876  0.0000E+00  0.6000E+01
    -41.845  0.0000E+00  0.6000E+01
    -41.814  0.0000E+00  0.6000E+01
    -41.783  0.0000E+00  0.6000E+01
    -41.752  0.0000E+00  0.6000E+01
    -41.721  0.0000E+00  0.6000E+01
    -41.690  0.0000E+00  0.6000E+01
    -41.659  0.0000E+00  0.6000E+01
    -41.628  0.0000E+00  0.6000E+01
    -41.598  0.0000E+00  0.6000E+01
    -41.567  0.0000E+00  0.6000E+01
    -41.536  0.0000E+00  0.6000E+01
    -41.505  0.0000E+00  0.6000E+01
    -41.474  0.0000E+00  0.6000E+01
    -41.443  0.0000E+00  0.6000E+01
    -41.412  0.0000E+00  0.6000E+01
    -41.381  0.0000E+00  0.6000E+01
    -41.350  0.0000E+00  0.6000E+01
    -41.319  0.0000E+00  0.6000E+01
    -41.288  0.0000E+00  0.6000E+01
    -41.257  0.0000E+00  0.6000E+01
    -41.227  0.0000E+00  0.6000E+01
    -41.196  0.0000E+00  0.6000E+01
    -41.165  0.0000E+00  0.6000E+01
    -41.134  0.0000E+00  0.6000E+01
    -41.103  0.0000E+00  0.6000E+01
    -41.072  0.0000E+00  0.6000E+01
    -41.041  0.0000E+00  0.6000E+01
    -41.010  0.0000E+00  0.6000E+01
    -40.979  0.0000E+00  0.6000E+01
    -40.948  0.0000E+00  0.6000E+01
    -40.917  0.0000E+00  0.6000E+01
    -40.886  0.0000E+00  0.6000E+01
    -40.856  0.0000E+00  0.6000E+01
    -40.825  0.0000E+00  0.6000E+01
    -40.794  0.0000E+00  0.6000E+01
    -40.763  0.0000E+00  0.6000E+01
    -40.732  0.0000E+00  0.6000E+01
    -40.701  0.0000E+00  0.6000E+01
    -40.670  0.0000E+00  0.6000E+01
    -40.639  0.0000E+00  0.6000E+01
    -40.608  0.0000E+00  0.6000E+01
    -40.577  0.0000E+00  0.6000E+01
    -40.546  0.0000E+00  0.6000E+01
    -40.515  0.0000E+00  0.6000E+01
    -40.485  0.0000E+00  0.6000E+01
    -40.454  0.0000E+00  0.6000E+01
    -40.423  0.0000E+00  0.6000E+01
    -40.392  0.0000E+00  0.6000E+01
    -40.361  0.0000E+00  0.6000E+01
    -40.330  0.0000E+00  0.6000E+01
    -40.299  0.0000E+00  0.6000E+01
    -40.268  0.0000E+00  0.6000E+01
    -40.237  0.0000E+00  0.6000E+01
    -40.206  0.0000E+00  0.6000E+01
    -40.175  0.0000E+00  0.6000E+01
    -40.144  0.0000E+00  0.6000E+01
    -40.113  0.0000E+00  0.6000E+01
    -40.083  0.0000E+00  0.6000E+01
    -40.052  0.0000E+00  0.6000E+01
    -40.021  0.0000E+00  0.6000E+01
    -39.990  0.0000E+00  0.6000E+01
    -39.959  0.0000E+00  0.6000E+01
    -39.928  0.0000E+00  0.6000E+01
    -39.897  0.0000E+00  0.6000E+01
    -39.866  0.0000E+00  0.6000E+01
    -39.835  0.0000E+00  0.6000E+01
    -39.804  0.0000E+00  0.6000E+01
    -39.773  0.0000E+00  0.6000E+01
    -39.742  0.0000E+00  0.6000E+01
    -39.712  0.0000E+00  0.6000E+01
    -39.681  0.0000E+00  0.6000E+01
    -39.650  0.0000E+00  0.6000E+01
    -39.619  0.0000E+00  0.6000E+01
    -39.588  0.0000E+00  0.6000E+01
    -39.557  0.0000E+00  0.6000E+01
    -39.526  0.0000E+00  0.6000E+01
    -39.495  0.0000E+00  0.6000E+01
    -39.464  0.0000E+00  0.6000E+01
    -39.433  0.0000E+00  0.6000E+01
    -39.402  0.0000E+00  0.6000E+01
    -39.371  0.0000E+00  0.6000E+01
    -39.341  0.0000E+00  0.6000E+01
    -39.310  0.0000E+00  0.6000E+01
    -39.279  0.0000E+00  0.6000E+01
    -39.248  0.0000E+00  0.6000E+01
    -39.217  0.0000E+00  0.6000E+01
    -39.186  0.0000E+00  0.6000E+01
    -39.155  0.0000E+00  0.6000E+01
    -39.124  0.0000E+00  0.6000E+01
    -39.093  0.0000E+00  0.6000E+01
    -39.062  0.0000E+00  0.6000E+01
    -39.031  0.0000E+00  0.6000E+01
    -39.000  0.0000E+00  0.6000E+01
    -38.970  0.0000E+00  0.6000E+01
    -38.939  0.0000E+00  0.6000E+01
    -38.908  0.0000E+00  0.6000E+01
    -38.877  0.0000E+00  0.6000E+01
    -38.846  0.0000E+00  0.6000E+01
    -38.815  0.0000E+00  0.6000E+01
    -38.784  0.0000E+00  0.6000E+01
    -38.753  0.0000E+00  0.6000E+01
    -38.722  0.0000E+00  0.6000E+01
    -38.691  0.0000E+00  0.6000E+01
    -38.660  0.0000E+00  0.6000E+01
    -38.629  0.0000E+00  0.6000E+01
    -38.599  0.0000E+00  0.6000E+01
    -38.568  0.0000E+00  0.6000E+01
    -38.537  0.0000E+00  0.6000E+01
    -38.506  0.0000E+00  0.6000E+01
    -38.475  0.0000E+00  0.6000E+01
    -38.444  0.0000E+00  0.6000E+01
    -38.413  0.0000E+00  0.6000E+01
    -38.382  0.0000E+00  0.6000E+01
    -38.351  0.0000E+00  0.6000E+01
    -38.320  0.0000E+00  0.6000E+01
    -38.289  0.0000E+00  0.6000E+01
    -38.258  0.0000E+00  0.6000E+01
    -38.228  0.0000E+00  0.6000E+01
    -38.197  0.0000E+00  0.6000E+01
    -38.166  0.0000E+00  0.6000E+01
    -38.135  0.0000E+00  0.6000E+01
    -38.104  0.0000E+00  0.6000E+01
    -38.073  0.0000E+00  0.6000E+01
    -38.042  0.0000E+00  0.6000E+01
    -38.011  0.0000E+00  0.6000E+01
    -37.980  0.0000E+00  0.6000E+01
    -37.949  0.0000E+00  0.6000E+01
    -37.918  0.0000E+00  0.6000E+01
    -37.887  0.0000E+00  0.6000E+01
    -37.856  0.0000E+00  0.6000E+01
    -37.826  0.0000E+00  0.6000E+01
    -37.795  0.0000E+00  0.6000E+01
    -37.764  0.0000E+00  0.6000E+01
    -37.733  0.0000E+00  0.6000E+01
    -37.702  0.0000E+00  0.6000E+01
    -37.671  0.0000E+00  0.6000E+01
    -37.640  0.0000E+00  0.6000E+01
    -37.609  0.0000E+00  0.6000E+01
    -37.578  0.0000E+00  0.6000E+01
    -37.547  0.0000E+00  0.6000E+01
    -37.516  0.0000E+00  0.6000E+01
    -37.485  0.0000E+00  0.6000E+01
    -37.455  0.0000E+00  0.6000E+01
    -37.424  0.0000E+00  0.6000E+01
    -37.393  0.0000E+00  0.6000E+01
    -37.362  0.0000E+00  0.6000E+01
    -37.331  0.0000E+00  0.6000E+01
    -37.300  0.0000E+00  0.6000E+01
    -37.269  0.0000E+00  0.6000E+01
    -37.238  0.0000E+00  0.6000E+01
    -37.207  0.0000E+00  0.6000E+01
    -37.176  0.0000E+00  0.6000E+01
    -37.145  0.0000E+00  0.6000E+01
    -37.114  0.0000E+00  0.6000E+01
    -37.084  0.0000E+00  0.6000E+01
    -37.053  0.0000E+00  0.6000E+01
    -37.022  0.0000E+00  0.6000E+01
    -36.991  0.0000E+00  0.6000E+01
    -36.960  0.0000E+00  0.6000E+01
    -36.929  0.0000E+00  0.6000E+01
    -36.898  0.0000E+00  0.6000E+01
    -36.867  0.0000E+00  0.6000E+01
    -36.836  0.0000E+00  0.6000E+01
    -36.805  0.0000E+00  0.6000E+01
    -36.774  0.0000E+00  0.6000E+01
    -36.743  0.0000E+00  0.6000E+01
    -36.713  0.0000E+00  0.6000E+01
    -36.682  0.0000E+00  0.6000E+01
    -36.651  0.0000E+00  0.6000E+01
    -36.620  0.0000E+00  0.6000E+01
    -36.589  0.0000E+00  0.6000E+01
    -36.558  0.0000E+00  0.6000E+01
    -36.527  0.0000E+00  0.6000E+01
    -36.496  0.0000E+00  0.6000E+01
    -36.465  0.0000E+00  0.6000E+01
    -36.434  0.0000E+00  0.6000E+01
    -36.403  0.0000E+00  0.6000E+01
    -36.372  0.0000E+00  0.6000E+01
    -36.342  0.0000E+00  0.6000E+01
    -36.311  0.0000E+00  0.6000E+01
    -36.280  0.0000E+00  0.6000E+01
    -36.249  0.0000E+00  0.6000E+01
    -36.218  0.0000E+00  0.6000E+01
    -36.187  0.0000E+00  0.6000E+01
    -36.156  0.0000E+00  0.6000E+01
    -36.125  0.0000E+00  0.6000E+01
    -36.094  0.0000E+00  0.6000E+01
    -36.063  0.0000E+00  0.6000E+01
    -36.032  0.0000E+00  0.6000E+01
    -36.001  0.0000E+00  0.6000E+01
    -35.970  0.0000E+00  0.6000E+01
    -35.940  0.0000E+00  0.6000E+01
    -35.909  0.0000E+00  0.6000E+01
    -35.878  0.0000E+00  0.6000E+01
    -35.847  0.0000E+00  0.6000E+01
    -35.816  0.0000E+00  0.6000E+01
    -35.785  0.0000E+00  0.6000E+01
    -35.754  0.0000E+00  0.6000E+01
    -35.723  0.0000E+00  0.6000E+01
    -35.692  0.0000E+00  0.6000E+01
    -35.661  0.0000E+00  0.6000E+01
    -35.630  0.0000E+00  0.6000E+01
    -35.599  0.0000E+00  0.6000E+01
    -35.569  0.0000E+00  0.6000E+01
    -35.538  0.0000E+00  0.6000E+01
    -35.507  0.0000E+00  0.6000E+01
    -35.476  0.0000E+00  0.6000E+01
    -35.445  0.0000E+00  0.6000E+01
    -35.414  0.0000E+00  0.6000E+01
    -35.383  0.0000E+00  0.6000E+01
    -35.352  0.0000E+00  0.6000E+01
    -35.321  0.0000E+00  0.6000E+01
    -35.290  0.0000E+00  0.6000E+01
    -35.259  0.0000E+00  0.6000E+01
    -35.228  0.0000E+00  0.6000E+01
    -35.198  0.0000E+00  0.6000E+01
    -35.167  0.0000E+00  0.6000E+01
    -35.136  0.0000E+00  0.6000E+01
    -35.105  0.0000E+00  0.6000E+01
    -35.074  0.0000E+00  0.6000E+01
    -35.043  0.0000E+00  0.6000E+01
    -35.012  0.0000E+00  0.6000E+01
    -34.981  0.0000E+00  0.6000E+01
    -34.950  0.0000E+00  0.6000E+01
    -34.919  0.0000E+00  0.6000E+01
    -34.888  0.0000E+00  0.6000E+01
    -34.857  0.0000E+00  0.6000E+01
    -34.827  0.0000E+00  0.6000E+01
    -34.796  0.0000E+00  0.6000E+01
    -34.765  0.0000E+00  0.6000E+01
    -34.734  0.0000E+00  0.6000E+01
    -34.703  0.0000E+00  0.6000E+01
    -34.672  0.0000E+00  0.6000E+01
    -34.641  0.0000E+00  0.6000E+01
    -34.610  0.0000E+00  0.6000E+01
    -34.579  0.0000E+00  0.6000E+01
    -34.548  0.0000E+00  0.6000E+01
    -34.517  0.0000E+00  0.6000E+01
    -34.486  0.0000E+00  0.6000E+01
    -34.456  0.0000E+00  0.6000E+01
    -34.425  0.0000E+00  0.6000E+01
    -34.394  0.0000E+00  0.6000E+01
    -34.363  0.0000E+00  0.6000E+01
    -34.332  0.0000E+00  0.6000E+01
    -34.301  0.0000E+00  0.6000E+01
    -34.270  0.0000E+00  0.6000E+01
    -34.239  0.0000E+00  0.6000E+01
    -34.208  0.0000E+00  0.6000E+01
    -34.177  0.0000E+00  0.6000E+01
    -34.146  0.0000E+00  0.6000E+01
    -34.115  0.0000E+00  0.6000E+01
    -34.085  0.0000E+00  0.6000E+01
    -34.054  0.0000E+00  0.6000E+01
    -34.023  0.0000E+00  0.6000E+01
    -33.992  0.0000E+00  0.6000E+01
    -33.961  0.0000E+00  0.6000E+01
    -33.930  0.0000E+00  0.6000E+01
    -33.899  0.0000E+00  0.6000E+01
    -33.868  0.0000E+00  0.6000E+01
    -33.837  0.0000E+00  0.6000E+01
    -33.806  0.0000E+00  0.6000E+01
    -33.775  0.0000E+00  0.6000E+01
    -33.744  0.0000E+00  0.6000E+01
    -33.713  0.0000E+00  0.6000E+01
    -33.683  0.0000E+00  0.6000E+01
    -33.652  0.0000E+00  0.6000E+01
    -33.621  0.0000E+00  0.6000E+01
    -33.590  0.0000E+00  0.6000E+01
    -33.559  0.0000E+00  0.6000E+01
    -33.528  0.0000E+00  0.6000E+01
    -33.497  0.0000E+00  0.6000E+01
    -33.466  0.0000E+00  0.6000E+01
    -33.435  0.0000E+00  0.6000E+01
    -33.404  0.0000E+00  0.6000E+01
    -33.373  0.0000E+00  0.6000E+01
    -33.342  0.0000E+00  0.6000E+01
    -33.312  0.0000E+00  0.6000E+01
    -33.281  0.0000E+00  0.6000E+01
    -33.250  0.0000E+00  0.6000E+01
    -33.219  0.0000E+00  0.6000E+01
    -33.188  0.0000E+00  0.6000E+01
    -33.157  0.0000E+00  0.6000E+01
    -33.126  0.0000E+00  0.6000E+01
    -33.095  0.0000E+00  0.6000E+01
    -33.064  0.0000E+00  0.6000E+01
    -33.033  0.0000E+00  0.6000E+01
    -33.002  0.0000E+00  0.6000E+01
    -32.971  0.0000E+00  0.6000E+01
    -32.941  0.0000E+00  0.6000E+01
    -32.910  0.0000E+00  0.6000E+01
    -32.879  0.0000E+00  0.6000E+01
    -32.848  0.0000E+00  0.6000E+01
    -32.817  0.0000E+00  0.6000E+01
    -32.786  0.0000E+00  0.6000E+01
    -32.755  0.0000E+00  0.6000E+01
    -32.724  0.0000E+00  0.6000E+01
    -32.693  0.0000E+00  0.6000E+01
    -32.662  0.0000E+00  0.6000E+01
    -32.631  0.0000E+00  0.6000E+01
    -32.600  0.0000E+00  0.6000E+01
    -32.570  0.0000E+00  0.6000E+01
    -32.539  0.0000E+00  0.6000E+01
    -32.508  0.0000E+00  0.6000E+01
    -32.477  0.0000E+00  0.6000E+01
    -32.446  0.0000E+00  0.6000E+01
    -32.415  0.0000E+00  0.6000E+01
    -32.384  0.0000E+00  0.6000E+01
    -32.353  0.0000E+00  0.6000E+01
    -32.322  0.0000E+00  0.6000E+01
    -32.291  0.0000E+00  0.6000E+01
    -32.260  0.0000E+00  0.6000E+01
    -32.229  0.0000E+00  0.6000E+01
    -32.199  0.0000E+00  0.6000E+01
    -32.168  0.0000E+00  0.6000E+01
    -32.137  0.0000E+00  0.6000E+01
    -32.106  0.0000E+00  0.6000E+01
    -32.075  0.0000E+00  0.6000E+01
    -32.044  0.0000E+00  0.6000E+01
    -32.013  0.0000E+00  0.6000E+01
    -31.982  0.0000E+00  0.6000E+01
    -31.951  0.0000E+00  0.6000E+01
    -31.920  0.0000E+00  0.6000E+01
    -31.889  0.0000E+00  0.6000E+01
    -31.858  0.0000E+00  0.6000E+01
    -31.827  0.0000E+00  0.6000E+01
    -31.797  0.0000E+00  0.6000E+01
    -31.766  0.0000E+00  0.6000E+01
    -31.735  0.0000E+00  0.6000E+01
    -31.704  0.0000E+00  0.6000E+01
    -31.673  0.0000E+00  0.6000E+01
    -31.642  0.0000E+00  0.6000E+01
    -31.611  0.0000E+00  0.6000E+01
    -31.580  0.0000E+00  0.6000E+01
    -31.549  0.0000E+00  0.6000E+01
    -31.518  0.0000E+00  0.6000E+01
    -31.487  0.0000E+00  0.6000E+01
    -31.456  0.0000E+00  0.6000E+01
    -31.426  0.0000E+00  0.6000E+01
    -31.395  0.0000E+00  0.6000E+01
    -31.364  0.0000E+00  0.6000E+01
    -31.333  0.0000E+00  0.6000E+01
    -31.302  0.0000E+00  0.6000E+01
    -31.271  0.0000E+00  0.6000E+01
    -31.240  0.0000E+00  0.6000E+01
    -31.209  0.0000E+00  0.6000E+01
    -31.178  0.0000E+00  0.6000E+01
    -31.147  0.0000E+00  0.6000E+01
    -31.116  0.0000E+00  0.6000E+01
    -31.085  0.0000E+00  0.6000E+01
    -31.055  0.0000E+00  0.6000E+01
    -31.024  0.0000E+00  0.6000E+01
    -30.993  0.0000E+00  0.6000E+01
    -30.962  0.0000E+00  0.6000E+01
    -30.931  0.0000E+00  0.6000E+01
    -30.900  0.0000E+00  0.6000E+01
    -30.869  0.0000E+00  0.6000E+01
    -30.838  0.0000E+00  0.6000E+01
    -30.807  0.0000E+00  0.6000E+01
    -30.776  0.0000E+00  0.6000E+01
    -30.745  0.0000E+00  0.6000E+01
    -30.714  0.0000E+00  0.6000E+01
    -30.684  0.0000E+00  0.6000E+01
    -30.653  0.0000E+00  0.6000E+01
    -30.622  0.0000E+00  0.6000E+01
    -30.591  0.0000E+00  0.6000E+01
    -30.560  0.0000E+00  0.6000E+01
    -30.529  0.0000E+00  0.6000E+01
    -30.498  0.0000E+00  0.6000E+01
    -30.467  0.0000E+00  0.6000E+01
    -30.436  0.0000E+00  0.6000E+01
    -30.405  0.0000E+00  0.6000E+01
    -30.374  0.0000E+00  0.6000E+01
    -30.343  0.0000E+00  0.6000E+01
    -30.313  0.0000E+00  0.6000E+01
    -30.282  0.0000E+00  0.6000E+01
    -30.251  0.0000E+00  0.6000E+01
    -30.220  0.0000E+00  0.6000E+01
    -30.189  0.0000E+00  0.6000E+01
    -30.158  0.0000E+00  0.6000E+01
    -30.127  0.0000E+00  0.6000E+01
    -30.096  0.0000E+00  0.6000E+01
    -30.065  0.0000E+00  0.6000E+01
    -30.034  0.0000E+00  0.6000E+01
    -30.003  0.0000E+00  0.6000E+01
    -29.972  0.0000E+00  0.6000E+01
    -29.942  0.0000E+00  0.6000E+01
    -29.911  0.0000E+00  0.6000E+01
    -29.880  0.0000E+00  0.6000E+01
    -29.849  0.0000E+00  0.6000E+01
    -29.818  0.0000E+00  0.6000E+01
    -29.787  0.0000E+00  0.6000E+01
    -29.756  0.0000E+00  0.6000E+01
    -29.725  0.0000E+00  0.6000E+01
    -29.694  0.0000E+00  0.6000E+01
    -29.663  0.0000E+00  0.6000E+01
    -29.632  0.0000E+00  0.6000E+01
    -29.601  0.0000E+00  0.6000E+01
    -29.570  0.0000E+00  0.6000E+01
    -29.540  0.0000E+00  0.6000E+01
    -29.509  0.0000E+00  0.6000E+01
    -29.478  0.0000E+00  0.6000E+01
    -29.447  0.0000E+00  0.6000E+01
    -29.416  0.0000E+00  0.6000E+01
    -29.385  0.0000E+00  0.6000E+01
    -29.354  0.0000E+00  0.6000E+01
    -29.323  0.0000E+00  0.6000E+01
    -29.292  0.0000E+00  0.6000E+01
    -29.261  0.0000E+00  0.6000E+01
    -29.230  0.0000E+00  0.6000E+01
    -29.199  0.0000E+00  0.6000E+01
    -29.169  0.0000E+00  0.6000E+01
    -29.138  0.0000E+00  0.6000E+01
    -29.107  0.0000E+00  0.6000E+01
    -29.076  0.0000E+00  0.6000E+01
    -29.045  0.0000E+00  0.6000E+01
    -29.014  0.0000E+00  0.6000E+01
    -28.983  0.0000E+00  0.6000E+01
    -28.952  0.0000E+00  0.6000E+01
    -28.921  0.0000E+00  0.6000E+01
    -28.890  0.0000E+00  0.6000E+01
    -28.859  0.0000E+00  0.6000E+01
    -28.828  0.0000E+00  0.6000E+01
    -28.798  0.0000E+00  0.6000E+01
    -28.767  0.0000E+00  0.6000E+01
    -28.736  0.0000E+00  0.6000E+01
    -28.705  0.0000E+00  0.6000E+01
    -28.674  0.0000E+00  0.6000E+01
    -28.643  0.0000E+00  0.6000E+01
    -28.612  0.0000E+00  0.6000E+01
    -28.581  0.0000E+00  0.6000E+01
    -28.550  0.0000E+00  0.6000E+01
    -28.519  0.0000E+00  0.6000E+01
    -28.488  0.0000E+00  0.6000E+01
    -28.457  0.0000E+00  0.6000E+01
    -28.427  0.0000E+00  0.6000E+01
    -28.396  0.0000E+00  0.6000E+01
    -28.365  0.0000E+00  0.6000E+01
    -28.334  0.0000E+00  0.6000E+01
    -28.303  0.0000E+00  0.6000E+01
    -28.272  0.0000E+00  0.6000E+01
    -28.241  0.0000E+00  0.6000E+01
    -28.210  0.0000E+00  0.6000E+01
    -28.179  0.0000E+00  0.6000E+01
    -28.148  0.0000E+00  0.6000E+01
    -28.117  0.0000E+00  0.6000E+01
    -28.086  0.0000E+00  0.6000E+01
    -28.056  0.0000E+00  0.6000E+01
    -28.025  0.0000E+00  0.6000E+01
    -27.994  0.0000E+00  0.6000E+01
    -27.963  0.0000E+00  0.6000E+01
    -27.932  0.0000E+00  0.6000E+01
    -27.901  0.0000E+00  0.6000E+01
    -27.870  0.0000E+00  0.6000E+01
    -27.839  0.0000E+00  0.6000E+01
    -27.808  0.0000E+00  0.6000E+01
    -27.777  0.0000E+00  0.6000E+01
    -27.746  0.0000E+00  0.6000E+01
    -27.715  0.0000E+00  0.6000E+01
    -27.684  0.0000E+00  0.6000E+01
    -27.654  0.0000E+00  0.6000E+01
    -27.623  0.0000E+00  0.6000E+01
    -27.592  0.0000E+00  0.6000E+01
    -27.561  0.0000E+00  0.6000E+01
    -27.530  0.0000E+00  0.6000E+01
    -27.499  0.0000E+00  0.6000E+01
    -27.468  0.0000E+00  0.6000E+01
    -27.437  0.0000E+00  0.6000E+01
    -27.406  0.0000E+00  0.6000E+01
    -27.375  0.0000E+00  0.6000E+01
    -27.344  0.0000E+00  0.6000E+01
    -27.313  0.0000E+00  0.6000E+01
    -27.283  0.0000E+00  0.6000E+01
    -27.252  0.0000E+00  0.6000E+01
    -27.221  0.0000E+00  0.6000E+01
    -27.190  0.0000E+00  0.6000E+01
    -27.159  0.0000E+00  0.6000E+01
    -27.128  0.0000E+00  0.6000E+01
    -27.097  0.0000E+00  0.6000E+01
    -27.066  0.0000E+00  0.6000E+01
    -27.035  0.0000E+00  0.6000E+01
    -27.004  0.0000E+00  0.6000E+01
    -26.973  0.0000E+00  0.6000E+01
    -26.942  0.0000E+00  0.6000E+01
    -26.912  0.0000E+00  0.6000E+01
    -26.881  0.0000E+00  0.6000E+01
    -26.850  0.0000E+00  0.6000E+01
    -26.819  0.0000E+00  0.6000E+01
    -26.788  0.0000E+00  0.6000E+01
    -26.757  0.0000E+00  0.6000E+01
    -26.726  0.0000E+00  0.6000E+01
    -26.695  0.0000E+00  0.6000E+01
    -26.664  0.0000E+00  0.6000E+01
    -26.633  0.0000E+00  0.6000E+01
    -26.602  0.0000E+00  0.6000E+01
    -26.571  0.0000E+00  0.6000E+01
    -26.541  0.0000E+00  0.6000E+01
    -26.510  0.0000E+00  0.6000E+01
    -26.479  0.0000E+00  0.6000E+01
    -26.448  0.0000E+00  0.6000E+01
    -26.417  0.0000E+00  0.6000E+01
    -26.386  0.0000E+00  0.6000E+01
    -26.355  0.0000E+00  0.6000E+01
    -26.324  0.0000E+00  0.6000E+01
    -26.293  0.0000E+00  0.6000E+01
    -26.262  0.0000E+00  0.6000E+01
    -26.231  0.0000E+00  0.6000E+01
    -26.200  0.0000E+00  0.6000E+01
    -26.170  0.0000E+00  0.6000E+01
    -26.139  0.0000E+00  0.6000E+01
    -26.108  0.0000E+00  0.6000E+01
    -26.077  0.0000E+00  0.6000E+01
    -26.046  0.0000E+00  0.6000E+01
    -26.015  0.0000E+00  0.6000E+01
    -25.984  0.0000E+00  0.6000E+01
    -25.953  0.0000E+00  0.6000E+01
    -25.922  0.0000E+00  0.6000E+01
    -25.891  0.0000E+00  0.6000E+01
    -25.860  0.0000E+00  0.6000E+01
    -25.829  0.0000E+00  0.6000E+01
    -25.799  0.0000E+00  0.6000E+01
    -25.768  0.0000E+00  0.6000E+01
    -25.737  0.0000E+00  0.6000E+01
    -25.706  0.0000E+00  0.6000E+01
    -25.675  0.0000E+00  0.6000E+01
    -25.644  0.0000E+00  0.6000E+01
    -25.613  0.0000E+00  0.6000E+01
    -25.582  0.0000E+00  0.6000E+01
    -25.551  0.0000E+00  0.6000E+01
    -25.520  0.0000E+00  0.6000E+01
    -25.489  0.0000E+00  0.6000E+01
    -25.458  0.0000E+00  0.6000E+01
    -25.427  0.0000E+00  0.6000E+01
    -25.397  0.0000E+00  0.6000E+01
    -25.366  0.0000E+00  0.6000E+01
    -25.335  0.0000E+00  0.6000E+01
    -25.304  0.0000E+00  0.6000E+01
    -25.273  0.0000E+00  0.6000E+01
    -25.242  0.0000E+00  0.6000E+01
    -25.211  0.0000E+00  0.6000E+01
    -25.180  0.0000E+00  0.6000E+01
    -25.149  0.0000E+00  0.6000E+01
    -25.118  0.0000E+00  0.6000E+01
    -25.087  0.0000E+00  0.6000E+01
    -25.056  0.0000E+00  0.6000E+01
    -25.026  0.0000E+00  0.6000E+01
    -24.995  0.0000E+00  0.6000E+01
    -24.964  0.0000E+00  0.6000E+01
    -24.933  0.0000E+00  0.6000E+01
    -24.902  0.0000E+00  0.6000E+01
    -24.871  0.0000E+00  0.6000E+01