Automatically generated mesh
     625
Reciprocal lattice
    0.00000000000000    0.00000000000000    0.00000000000000             1
    0.04000000000000    0.00000000000000    0.00000000000000             1
    0.08000000000000    0.00000000000000    0.00000000000000             1
    0.12000000000000    0.00000000000000    0.00000000000000             1
    0.16000000000000    0.00000000000000    0.00000000000000             1
    0.20000000000000    0.00000000000000    0.00000000000000             1
    0.24000000000000   -0.00000000000000    0.00000000000000             1
    0.28000000000000    0.00000000000000    0.00000000000000             1
    0.32000000000000    0.00000000000000    0.00000000000000             1
    0.36000000000000    0.00000000000000    0.00000000000000             1
    0.40000000000000    0.00000000000000   -0.00000000000000             1
    0.44000000000000    0.00000000000000    0.00000000000000             1
    0.48000000000000    0.00000000000000   -0.00000000000000             1
   -0.48000000000000    0.00000000000000    0.00000000000000             1
   -0.44000000000000    0.00000000000000    0.00000000000000             1
   -0.40000000000000    0.00000000000000    0.00000000000000             1
   -0.36000000000000    0.00000000000000   -0.00000000000000             1
   -0.32000000000000   -0.00000000000000   -0.00000000000000             1
   -0.28000000000000   -0.00000000000000   -0.00000000000000             1
   -0.24000000000000    0.00000000000000    0.00000000000000             1
   -0.20000000000000    0.00000000000000   -0.00000000000000             1
   -0.16000000000000    0.00000000000000   -0.00000000000000             1
   -0.12000000000000   -0.00000000000000   -0.00000000000000             1
   -0.08000000000000    0.00000000000000   -0.00000000000000             1
   -0.04000000000000    0.00000000000000   -0.00000000000000             1
   -0.00000000000000    0.04000000000000    0.00000000000000             1
    0.04000000000000    0.04000000000000    0.00000000000000             1
    0.08000000000000    0.04000000000000    0.00000000000000             1
    0.12000000000000    0.04000000000000    0.00000000000000             1
    0.16000000000000    0.04000000000000   -0.00000000000000             1
    0.20000000000000    0.04000000000000    0.00000000000000             1
    0.24000000000000    0.04000000000000    0.00000000000000             1
    0.28000000000000    0.04000000000000    0.00000000000000             1
    0.32000000000000    0.04000000000000    0.00000000000000             1
    0.36000000000000    0.04000000000000    0.00000000000000             1
    0.40000000000000    0.04000000000000    0.00000000000000             1
    0.44000000000000    0.04000000000000    0.00000000000000             1
    0.48000000000000    0.04000000000000   -0.00000000000000             1
   -0.48000000000000    0.04000000000000    0.00000000000000             1
   -0.44000000000000    0.04000000000000   -0.00000000000000             1
   -0.40000000000000    0.04000000000000    0.00000000000000             1
   -0.36000000000000    0.04000000000000   -0.00000000000000             1
   -0.32000000000000    0.04000000000000   -0.00000000000000             1
   -0.28000000000000    0.04000000000000   -0.00000000000000             1
   -0.24000000000000    0.04000000000000    0.00000000000000             1
   -0.20000000000000    0.04000000000000   -0.00000000000000             1
   -0.16000000000000    0.04000000000000   -0.00000000000000             1
   -0.12000000000000    0.04000000000000   -0.00000000000000             1
   -0.08000000000000    0.04000000000000   -0.00000000000000             1
   -0.04000000000000    0.04000000000000    0.00000000000000             1
   -0.00000000000000    0.08000000000000    0.00000000000000             1
    0.04000000000000    0.08000000000000    0.00000000000000             1
    0.08000000000000    0.08000000000000    0.00000000000000             1
    0.12000000000000    0.08000000000000    0.00000000000000             1
    0.16000000000000    0.08000000000000    0.00000000000000             1
    0.20000000000000    0.08000000000000    0.00000000000000             1
    0.24000000000000    0.08000000000000   -0.00000000000000             1
    0.28000000000000    0.08000000000000   -0.00000000000000             1
    0.32000000000000    0.08000000000000    0.00000000000000             1
    0.36000000000000    0.08000000000000    0.00000000000000             1
    0.40000000000000    0.08000000000000    0.00000000000000             1
    0.44000000000000    0.08000000000000    0.00000000000000             1
    0.48000000000000    0.08000000000000    0.00000000000000             1
   -0.48000000000000    0.08000000000000    0.00000000000000             1
   -0.44000000000000    0.08000000000000    0.00000000000000             1
   -0.40000000000000    0.08000000000000   -0.00000000000000             1
   -0.36000000000000    0.08000000000000   -0.00000000000000             1
   -0.32000000000000    0.08000000000000   -0.00000000000000             1
   -0.28000000000000    0.08000000000000    0.00000000000000             1
   -0.24000000000000    0.08000000000000   -0.00000000000000             1
   -0.20000000000000    0.08000000000000   -0.00000000000000             1
   -0.16000000000000    0.08000000000000   -0.00000000000000             1
   -0.12000000000000    0.08000000000000   -0.00000000000000             1
   -0.08000000000000    0.08000000000000    0.00000000000000             1
   -0.04000000000000    0.08000000000000   -0.00000000000000             1
    0.00000000000000    0.12000000000000    0.00000000000000             1
    0.04000000000000    0.12000000000000    0.00000000000000             1
    0.08000000000000    0.12000000000000    0.00000000000000             1
    0.12000000000000    0.12000000000000    0.00000000000000             1
    0.16000000000000    0.12000000000000    0.00000000000000             1
    0.20000000000000    0.12000000000000   -0.00000000000000             1
    0.24000000000000    0.12000000000000    0.00000000000000             1
    0.28000000000000    0.12000000000000    0.00000000000000             1
    0.32000000000000    0.12000000000000    0.00000000000000             1
    0.36000000000000    0.12000000000000    0.00000000000000             1
    0.40000000000000    0.12000000000000    0.00000000000000             1
    0.44000000000000    0.12000000000000   -0.00000000000000             1
    0.48000000000000    0.12000000000000    0.00000000000000             1
   -0.48000000000000    0.12000000000000   -0.00000000000000             1
   -0.44000000000000    0.12000000000000    0.00000000000000             1
   -0.40000000000000    0.12000000000000   -0.00000000000000             1
   -0.36000000000000    0.12000000000000   -0.00000000000000             1
   -0.32000000000000    0.12000000000000   -0.00000000000000             1
   -0.28000000000000    0.12000000000000    0.00000000000000             1
   -0.24000000000000    0.12000000000000    0.00000000000000             1
   -0.20000000000000    0.12000000000000   -0.00000000000000             1
   -0.16000000000000    0.12000000000000   -0.00000000000000             1
   -0.12000000000000    0.12000000000000   -0.00000000000000             1
   -0.08000000000000    0.12000000000000    0.00000000000000             1
   -0.04000000000000    0.12000000000000    0.00000000000000             1
   -0.00000000000000    0.16000000000000    0.00000000000000             1
    0.04000000000000    0.16000000000000    0.00000000000000             1
    0.08000000000000    0.16000000000000    0.00000000000000             1
    0.12000000000000    0.16000000000000    0.00000000000000             1
    0.16000000000000    0.16000000000000    0.00000000000000             1
    0.20000000000000    0.16000000000000    0.00000000000000             1
    0.24000000000000    0.16000000000000    0.00000000000000             1
    0.28000000000000    0.16000000000000    0.00000000000000             1
    0.32000000000000    0.16000000000000    0.00000000000000             1
    0.36000000000000    0.16000000000000    0.00000000000000             1
    0.40000000000000    0.16000000000000   -0.00000000000000             1
    0.44000000000000    0.16000000000000    0.00000000000000             1
    0.48000000000000    0.16000000000000    0.00000000000000             1
   -0.48000000000000    0.16000000000000    0.00000000000000             1
   -0.44000000000000    0.16000000000000   -0.00000000000000             1
   -0.40000000000000    0.16000000000000   -0.00000000000000             1
   -0.36000000000000    0.16000000000000   -0.00000000000000             1
   -0.32000000000000    0.16000000000000   -0.00000000000000             1
   -0.28000000000000    0.16000000000000   -0.00000000000000             1
   -0.24000000000000    0.16000000000000   -0.00000000000000             1
   -0.20000000000000    0.16000000000000   -0.00000000000000             1
   -0.16000000000000    0.16000000000000    0.00000000000000             1
   -0.12000000000000    0.16000000000000   -0.00000000000000             1
   -0.08000000000000    0.16000000000000   -0.00000000000000             1
   -0.04000000000000    0.16000000000000   -0.00000000000000             1
    0.00000000000000    0.20000000000000    0.00000000000000             1
    0.04000000000000    0.20000000000000    0.00000000000000             1
    0.08000000000000    0.20000000000000    0.00000000000000             1
    0.12000000000000    0.20000000000000    0.00000000000000             1
    0.16000000000000    0.20000000000000    0.00000000000000             1
    0.20000000000000    0.20000000000000    0.00000000000000             1
    0.24000000000000    0.20000000000000    0.00000000000000             1
    0.28000000000000    0.20000000000000    0.00000000000000             1
    0.32000000000000    0.20000000000000    0.00000000000000             1
    0.36000000000000    0.20000000000000    0.00000000000000             1
    0.40000000000000    0.20000000000000    0.00000000000000             1
    0.44000000000000    0.20000000000000   -0.00000000000000             1
    0.48000000000000    0.20000000000000   -0.00000000000000             1
   -0.48000000000000    0.20000000000000    0.00000000000000             1
   -0.44000000000000    0.20000000000000   -0.00000000000000             1
   -0.40000000000000    0.20000000000000    0.00000000000000             1
   -0.36000000000000    0.20000000000000   -0.00000000000000             1
   -0.32000000000000    0.20000000000000   -0.00000000000000             1
   -0.28000000000000    0.20000000000000   -0.00000000000000             1
   -0.24000000000000    0.20000000000000    0.00000000000000             1
   -0.20000000000000    0.20000000000000    0.00000000000000             1
   -0.16000000000000    0.20000000000000    0.00000000000000             1
   -0.12000000000000    0.20000000000000   -0.00000000000000             1
   -0.08000000000000    0.20000000000000   -0.00000000000000             1
   -0.04000000000000    0.20000000000000    0.00000000000000             1
    0.00000000000000    0.24000000000000    0.00000000000000             1
    0.04000000000000    0.24000000000000   -0.00000000000000             1
    0.08000000000000    0.24000000000000    0.00000000000000             1
    0.12000000000000    0.24000000000000    0.00000000000000             1
    0.16000000000000    0.24000000000000    0.00000000000000             1
    0.20000000000000    0.24000000000000    0.00000000000000             1
    0.24000000000000    0.24000000000000   -0.00000000000000             1
    0.28000000000000    0.24000000000000    0.00000000000000             1
    0.32000000000000    0.24000000000000    0.00000000000000             1
    0.36000000000000    0.24000000000000    0.00000000000000             1
    0.40000000000000    0.24000000000000   -0.00000000000000             1
    0.44000000000000    0.24000000000000   -0.00000000000000             1
    0.48000000000000    0.24000000000000    0.00000000000000             1
   -0.48000000000000    0.24000000000000   -0.00000000000000             1
   -0.44000000000000    0.24000000000000    0.00000000000000             1
   -0.40000000000000    0.24000000000000   -0.00000000000000             1
   -0.36000000000000    0.24000000000000   -0.00000000000000             1
   -0.32000000000000    0.24000000000000   -0.00000000000000             1
   -0.28000000000000    0.24000000000000   -0.00000000000000             1
   -0.24000000000000    0.24000000000000   -0.00000000000000             1
   -0.20000000000000    0.24000000000000   -0.00000000000000             1
   -0.16000000000000    0.24000000000000   -0.00000000000000             1
   -0.12000000000000    0.24000000000000    0.00000000000000             1
   -0.08000000000000    0.24000000000000    0.00000000000000             1
   -0.04000000000000    0.24000000000000   -0.00000000000000             1
   -0.00000000000000    0.28000000000000   -0.00000000000000             1
    0.04000000000000    0.28000000000000    0.00000000000000             1
    0.08000000000000    0.28000000000000    0.00000000000000             1
    0.12000000000000    0.28000000000000    0.00000000000000             1
    0.16000000000000    0.28000000000000    0.00000000000000             1
    0.20000000000000    0.28000000000000    0.00000000000000             1
    0.24000000000000    0.28000000000000   -0.00000000000000             1
    0.28000000000000    0.28000000000000    0.00000000000000             1
    0.32000000000000    0.28000000000000    0.00000000000000             1
    0.36000000000000    0.28000000000000    0.00000000000000             1
    0.40000000000000    0.28000000000000   -0.00000000000000             1
    0.44000000000000    0.28000000000000   -0.00000000000000             1
    0.48000000000000    0.28000000000000   -0.00000000000000             1
   -0.48000000000000    0.28000000000000   -0.00000000000000             1
   -0.44000000000000    0.28000000000000   -0.00000000000000             1
   -0.40000000000000    0.28000000000000    0.00000000000000             1
   -0.36000000000000    0.28000000000000   -0.00000000000000             1
   -0.32000000000000    0.28000000000000   -0.00000000000000             1
   -0.28000000000000    0.28000000000000   -0.00000000000000             1
   -0.24000000000000    0.28000000000000    0.00000000000000             1
   -0.20000000000000    0.28000000000000    0.00000000000000             1
   -0.16000000000000    0.28000000000000    0.00000000000000             1
   -0.12000000000000    0.28000000000000   -0.00000000000000             1
   -0.08000000000000    0.28000000000000   -0.00000000000000             1
   -0.04000000000000    0.28000000000000   -0.00000000000000             1
    0.00000000000000    0.32000000000000    0.00000000000000             1
    0.04000000000000    0.32000000000000    0.00000000000000             1
    0.08000000000000    0.32000000000000    0.00000000000000             1
    0.12000000000000    0.32000000000000    0.00000000000000             1
    0.16000000000000    0.32000000000000    0.00000000000000             1
    0.20000000000000    0.32000000000000    0.00000000000000             1
    0.24000000000000    0.32000000000000    0.00000000000000             1
    0.28000000000000    0.32000000000000    0.00000000000000             1
    0.32000000000000    0.32000000000000    0.00000000000000             1
    0.36000000000000    0.32000000000000    0.00000000000000             1
    0.40000000000000    0.32000000000000    0.00000000000000             1
    0.44000000000000    0.32000000000000    0.00000000000000             1
    0.48000000000000    0.32000000000000    0.00000000000000             1
   -0.48000000000000    0.32000000000000   -0.00000000000000             1
   -0.44000000000000    0.32000000000000    0.00000000000000             1
   -0.40000000000000    0.32000000000000    0.00000000000000             1
   -0.36000000000000    0.32000000000000    0.00000000000000             1
   -0.32000000000000    0.32000000000000    0.00000000000000             1
   -0.28000000000000    0.32000000000000   -0.00000000000000             1
   -0.24000000000000    0.32000000000000    0.00000000000000             1
   -0.20000000000000    0.32000000000000   -0.00000000000000             1
   -0.16000000000000    0.32000000000000   -0.00000000000000             1
   -0.12000000000000    0.32000000000000   -0.00000000000000             1
   -0.08000000000000    0.32000000000000    0.00000000000000             1
   -0.04000000000000    0.32000000000000   -0.00000000000000             1
   -0.00000000000000    0.36000000000000    0.00000000000000             1
    0.04000000000000    0.36000000000000    0.00000000000000             1
    0.08000000000000    0.36000000000000    0.00000000000000             1
    0.12000000000000    0.36000000000000    0.00000000000000             1
    0.16000000000000    0.36000000000000    0.00000000000000             1
    0.20000000000000    0.36000000000000    0.00000000000000             1
    0.24000000000000    0.36000000000000    0.00000000000000             1
    0.28000000000000    0.36000000000000    0.00000000000000             1
    0.32000000000000    0.36000000000000    0.00000000000000             1
    0.36000000000000    0.36000000000000    0.00000000000000             1
    0.40000000000000    0.36000000000000    0.00000000000000             1
    0.44000000000000    0.36000000000000    0.00000000000000             1
    0.48000000000000    0.36000000000000   -0.00000000000000             1
   -0.48000000000000    0.36000000000000    0.00000000000000             1
   -0.44000000000000    0.36000000000000   -0.00000000000000             1
   -0.40000000000000    0.36000000000000    0.00000000000000             1
   -0.36000000000000    0.36000000000000    0.00000000000000             1
   -0.32000000000000    0.36000000000000   -0.00000000000000             1
   -0.28000000000000    0.36000000000000    0.00000000000000             1
   -0.24000000000000    0.36000000000000    0.00000000000000             1
   -0.20000000000000    0.36000000000000   -0.00000000000000             1
   -0.16000000000000    0.36000000000000   -0.00000000000000             1
   -0.12000000000000    0.36000000000000   -0.00000000000000             1
   -0.08000000000000    0.36000000000000    0.00000000000000             1
   -0.04000000000000    0.36000000000000    0.00000000000000             1
   -0.00000000000000    0.40000000000000   -0.00000000000000             1
    0.04000000000000    0.40000000000000    0.00000000000000             1
    0.08000000000000    0.40000000000000    0.00000000000000             1
    0.12000000000000    0.40000000000000    0.00000000000000             1
    0.16000000000000    0.40000000000000   -0.00000000000000             1
    0.20000000000000    0.40000000000000    0.00000000000000             1
    0.24000000000000    0.40000000000000   -0.00000000000000             1
    0.28000000000000    0.40000000000000    0.00000000000000             1
    0.32000000000000    0.40000000000000    0.00000000000000             1
    0.36000000000000    0.40000000000000    0.00000000000000             1
    0.40000000000000    0.40000000000000    0.00000000000000             1
    0.44000000000000    0.40000000000000   -0.00000000000000             1
    0.48000000000000    0.40000000000000   -0.00000000000000             1
   -0.48000000000000    0.40000000000000    0.00000000000000             1
   -0.44000000000000    0.40000000000000   -0.00000000000000             1
   -0.40000000000000    0.40000000000000   -0.00000000000000             1
   -0.36000000000000    0.40000000000000    0.00000000000000             1
   -0.32000000000000    0.40000000000000    0.00000000000000             1
   -0.28000000000000    0.40000000000000   -0.00000000000000             1
   -0.24000000000000    0.40000000000000   -0.00000000000000             1
   -0.20000000000000    0.40000000000000   -0.00000000000000             1
   -0.16000000000000    0.40000000000000   -0.00000000000000             1
   -0.12000000000000    0.40000000000000   -0.00000000000000             1
   -0.08000000000000    0.40000000000000    0.00000000000000             1
   -0.04000000000000    0.40000000000000    0.00000000000000             1
    0.00000000000000    0.44000000000000    0.00000000000000             1
    0.04000000000000    0.44000000000000    0.00000000000000             1
    0.08000000000000    0.44000000000000    0.00000000000000             1
    0.12000000000000    0.44000000000000    0.00000000000000             1
    0.16000000000000    0.44000000000000    0.00000000000000             1
    0.20000000000000    0.44000000000000    0.00000000000000             1
    0.24000000000000    0.44000000000000    0.00000000000000             1
    0.28000000000000    0.44000000000000    0.00000000000000             1
    0.32000000000000    0.44000000000000    0.00000000000000             1
    0.36000000000000    0.44000000000000    0.00000000000000             1
    0.40000000000000    0.44000000000000    0.00000000000000             1
    0.44000000000000    0.44000000000000   -0.00000000000000             1
    0.48000000000000    0.44000000000000    0.00000000000000             1
   -0.48000000000000    0.44000000000000   -0.00000000000000             1
   -0.44000000000000    0.44000000000000   -0.00000000000000             1
   -0.40000000000000    0.44000000000000   -0.00000000000000             1
   -0.36000000000000    0.44000000000000    0.00000000000000             1
   -0.32000000000000    0.44000000000000   -0.00000000000000             1
   -0.28000000000000    0.44000000000000    0.00000000000000             1
   -0.24000000000000    0.44000000000000    0.00000000000000             1
   -0.20000000000000    0.44000000000000    0.00000000000000             1
   -0.16000000000000    0.44000000000000    0.00000000000000             1
   -0.12000000000000    0.44000000000000    0.00000000000000             1
   -0.08000000000000    0.44000000000000    0.00000000000000             1
   -0.04000000000000    0.44000000000000    0.00000000000000             1
   -0.00000000000000    0.48000000000000   -0.00000000000000             1
    0.04000000000000    0.48000000000000    0.00000000000000             1
    0.08000000000000    0.48000000000000   -0.00000000000000             1
    0.12000000000000    0.48000000000000    0.00000000000000             1
    0.16000000000000    0.48000000000000    0.00000000000000             1
    0.20000000000000    0.48000000000000    0.00000000000000             1
    0.24000000000000    0.48000000000000   -0.00000000000000             1
    0.28000000000000    0.48000000000000    0.00000000000000             1
    0.32000000000000    0.48000000000000    0.00000000000000             1
    0.36000000000000    0.48000000000000    0.00000000000000             1
    0.40000000000000    0.48000000000000    0.00000000000000             1
    0.44000000000000    0.48000000000000   -0.00000000000000             1
    0.48000000000000    0.48000000000000   -0.00000000000000             1
   -0.48000000000000    0.48000000000000   -0.00000000000000             1
   -0.44000000000000    0.48000000000000   -0.00000000000000             1
   -0.40000000000000    0.48000000000000    0.00000000000000             1
   -0.36000000000000    0.48000000000000   -0.00000000000000             1
   -0.32000000000000    0.48000000000000    0.00000000000000             1
   -0.28000000000000    0.48000000000000   -0.00000000000000             1
   -0.24000000000000    0.48000000000000    0.00000000000000             1
   -0.20000000000000    0.48000000000000    0.00000000000000             1
   -0.16000000000000    0.48000000000000    0.00000000000000             1
   -0.12000000000000    0.48000000000000    0.00000000000000             1
   -0.08000000000000    0.48000000000000    0.00000000000000             1
   -0.04000000000000    0.48000000000000    0.00000000000000             1
    0.00000000000000   -0.48000000000000    0.00000000000000             1
    0.04000000000000   -0.48000000000000    0.00000000000000             1
    0.08000000000000   -0.48000000000000    0.00000000000000             1
    0.12000000000000   -0.48000000000000    0.00000000000000             1
    0.16000000000000   -0.48000000000000   -0.00000000000000             1
    0.20000000000000   -0.48000000000000   -0.00000000000000             1
    0.24000000000000   -0.48000000000000    0.00000000000000             1
    0.28000000000000   -0.48000000000000    0.00000000000000             1
    0.32000000000000   -0.48000000000000   -0.00000000000000             1
    0.36000000000000   -0.48000000000000    0.00000000000000             1
    0.40000000000000   -0.48000000000000   -0.00000000000000             1
    0.44000000000000   -0.48000000000000    0.00000000000000             1
    0.48000000000000   -0.48000000000000    0.00000000000000             1
   -0.48000000000000   -0.48000000000000    0.00000000000000             1
   -0.44000000000000   -0.48000000000000    0.00000000000000             1
   -0.40000000000000   -0.48000000000000   -0.00000000000000             1
   -0.36000000000000   -0.48000000000000   -0.00000000000000             1
   -0.32000000000000   -0.48000000000000   -0.00000000000000             1
   -0.28000000000000   -0.48000000000000    0.00000000000000             1
   -0.24000000000000   -0.48000000000000    0.00000000000000             1
   -0.20000000000000   -0.48000000000000    0.00000000000000             1
   -0.16000000000000   -0.48000000000000   -0.00000000000000             1
   -0.12000000000000   -0.48000000000000   -0.00000000000000             1
   -0.08000000000000   -0.48000000000000    0.00000000000000             1
   -0.04000000000000   -0.48000000000000   -0.00000000000000             1
   -0.00000000000000   -0.44000000000000   -0.00000000000000             1
    0.04000000000000   -0.44000000000000   -0.00000000000000             1
    0.08000000000000   -0.44000000000000   -0.00000000000000             1
    0.12000000000000   -0.44000000000000    0.00000000000000             1
    0.16000000000000   -0.44000000000000   -0.00000000000000             1
    0.20000000000000   -0.44000000000000    0.00000000000000             1
    0.24000000000000   -0.44000000000000    0.00000000000000             1
    0.28000000000000   -0.44000000000000    0.00000000000000             1
    0.32000000000000   -0.44000000000000    0.00000000000000             1
    0.36000000000000   -0.44000000000000    0.00000000000000             1
    0.40000000000000   -0.44000000000000    0.00000000000000             1
    0.44000000000000   -0.44000000000000    0.00000000000000             1
    0.48000000000000   -0.44000000000000    0.00000000000000             1
   -0.48000000000000   -0.44000000000000    0.00000000000000             1
   -0.44000000000000   -0.44000000000000    0.00000000000000             1
   -0.40000000000000   -0.44000000000000   -0.00000000000000             1
   -0.36000000000000   -0.44000000000000   -0.00000000000000             1
   -0.32000000000000   -0.44000000000000   -0.00000000000000             1
   -0.28000000000000   -0.44000000000000   -0.00000000000000             1
   -0.24000000000000   -0.44000000000000   -0.00000000000000             1
   -0.20000000000000   -0.44000000000000   -0.00000000000000             1
   -0.16000000000000   -0.44000000000000   -0.00000000000000             1
   -0.12000000000000   -0.44000000000000   -0.00000000000000             1
   -0.08000000000000   -0.44000000000000   -0.00000000000000             1
   -0.04000000000000   -0.44000000000000   -0.00000000000000             1
    0.00000000000000   -0.40000000000000    0.00000000000000             1
    0.04000000000000   -0.40000000000000   -0.00000000000000             1
    0.08000000000000   -0.40000000000000   -0.00000000000000             1
    0.12000000000000   -0.40000000000000    0.00000000000000             1
    0.16000000000000   -0.40000000000000    0.00000000000000             1
    0.20000000000000   -0.40000000000000    0.00000000000000             1
    0.24000000000000   -0.40000000000000    0.00000000000000             1
    0.28000000000000   -0.40000000000000    0.00000000000000             1
    0.32000000000000   -0.40000000000000    0.00000000000000             1
    0.36000000000000   -0.40000000000000    0.00000000000000             1
    0.40000000000000   -0.40000000000000    0.00000000000000             1
    0.44000000000000   -0.40000000000000    0.00000000000000             1
    0.48000000000000   -0.40000000000000    0.00000000000000             1
   -0.48000000000000   -0.40000000000000    0.00000000000000             1
   -0.44000000000000   -0.40000000000000    0.00000000000000             1
   -0.40000000000000   -0.40000000000000    0.00000000000000             1
   -0.36000000000000   -0.40000000000000   -0.00000000000000             1
   -0.32000000000000   -0.40000000000000   -0.00000000000000             1
   -0.28000000000000   -0.40000000000000   -0.00000000000000             1
   -0.24000000000000   -0.40000000000000    0.00000000000000             1
   -0.20000000000000   -0.40000000000000   -0.00000000000000             1
   -0.16000000000000   -0.40000000000000    0.00000000000000             1
   -0.12000000000000   -0.40000000000000    0.00000000000000             1
   -0.08000000000000   -0.40000000000000   -0.00000000000000             1