 vasp.6.2.1 16May21 (build May 20 2021 13:04:43) complex                        
  
 executed on             LinuxIFC date 2023.12.25  18:27:57
 running on   64 total cores
 distrk:  each k-point on   64 cores,    1 groups
 distr:  one band on NCORE=   1 cores,   64 groups


--------------------------------------------------------------------------------------------------------


 INCAR:
   ENCUT = 330
   EDIFF = 1E-7
   LORBIT = 12
   LREAL = .False.
   NELM = 0
   NELMIN = 6
   NELMDL = -7
   PREC = Accurate
   ALGO = 2
   NBANDS = 64
   NSW = 0
   IBRION = -1
   ISIF = 3
   EDIFFG = -0.001
   VOSKOWN = 1
   LASPH = True
   IVDW = 12
   ISMEAR = -5
   SIGMA = 0.05
   NEDOS = 2001
   ISPIN = 2
   MAGMOM = 0.0 0.0 5.0 -0.0 -0.0 -0.6 -0.0 -0.0 -0.6
   ISYM = -1
   LSORBIT = .TRUE.
   SAXIS = 0 0 1
   EFIELD = 0.00
   IDIPOL = 3
   LDIPOL = .TRUE.
   LVHAR = .TRUE.
   AMIX = 0.2
   BMIX = 0.00001
   AMIX_MAG = 0.8
   BMIX_MAG = 0.00001
   LDAU = .TRUE.
   LDAUTYPE = 2
   LDAUL = 2 -1 -1
   LDAUU = 3.0 0.00 0.00
   LDAUJ = 0.00 0.00 0.00
   LDAUPRINT = 2
   LMAXMIX = 4
   LWAVE = .FALSE.
   NCORE = 1
   LWANNIER90 = .TRUE.
   NUM_WANN = 22
   WANNIER90_WIN = \"\
Begin Projections\
Cr:d\
S:p\
Te:p\
End Projections\
\
\# for TB2J package\; write the postitions of WF\
write_xyz \= true\
\
\# for TB2J package\; write the WF Hamiltonian (Note for W90 version<2.1, it is hr_plot)\
write_hr \= true\
write_u_matrices \= true\
write_rmn \= true\
write_bvec \= true\
\
dis_num_iter \= 200\
num_iter     \= 100\
\
exclude_bands \= 1-10, 37-64\
\
dis_win_min\=-8.714143 \# 0 \# -6eV\
dis_win_max\=3.678299 \# 0  \# 4.8eV\
dis_froz_min\=-8.713943 \# 0 \#-6eV\
dis_froz_max\=0.677504 \# 0 \# 3.8eV\
\
fermi_energy\=-3.02309656 \#\
\
bands_plot \= .true.\
\
\# VISUALIZE BANDS\
wannier_plot \= false\
wannier_plot_list \= 1 2 3 4   \# PLOT THESE SELECTED WFs\
wannier_plot_supercell \= 1 \# do not save larger than 3 (otherwise memory and performance issues?) \
\
\
\# PLOT WITH SPIN-TEXTURES\
spin_decomp \= true\
spin_axis_azimuth \= 0 \#90 \#0 \#0 \# deg\
spin_axis_polar \= 0 \#90 \#90 \#90 \# deg\
iprint \= 3\
kpath \= true\
kpath_task \= bands\
kpath_bands_colour \= spin\
\
\
Begin Kpoint_Path\
K 0.333333 0.333333 0.000000    G 0.000000 0.000000 0.000000\
G 0.000000 0.000000 0.000000    M 0.500000 0.000000 0.000000\
M 0.500000 0.000000 0.000000    K 0.333333 0.333333 0.000000\
End Kpoint_Path\
\"

 POTCAR:    PAW_PBE Cr_pv 02Aug2007               
 POTCAR:    PAW_PBE S 06Sep2000                   
 POTCAR:    PAW_PBE Te 08Apr2002                  
 -----------------------------------------------------------------------------
|                                                                             |
|           W    W    AA    RRRRR   N    N  II  N    N   GGGG   !!!           |
|           W    W   A  A   R    R  NN   N  II  NN   N  G    G  !!!           |
|           W    W  A    A  R    R  N N  N  II  N N  N  G       !!!           |
|           W WW W  AAAAAA  RRRRR   N  N N  II  N  N N  G  GGG   !            |
|           WW  WW  A    A  R   R   N   NN  II  N   NN  G    G                |
|           W    W  A    A  R    R  N    N  II  N    N   GGGG   !!!           |
|                                                                             |
|     For optimal performance we recommend to set                             |
|       NCORE = 2 up to number-of-cores-per-socket                            |
|     NCORE specifies how many cores store one orbital (NPAR=cpu/NCORE).      |
|     This setting can greatly improve the performance of VASP for DFT.       |
|     The default, NCORE=1 might be grossly inefficient on modern             |
|     multi-core architectures or massively parallel machines. Do your        |
|     own testing! More info at https://www.vasp.at/wiki/index.php/NCORE      |
|     Unfortunately you need to use the default for GW and RPA                |
|     calculations (for HF NCORE is supported but not extensively tested      |
|     yet).                                                                   |
|                                                                             |
 -----------------------------------------------------------------------------

 POTCAR:    PAW_PBE Cr_pv 02Aug2007               
   VRHFIN =Cr : p6d5s1                                                                              
   LEXCH  = PE                                                                                      
   EATOM  =  1647.9177 eV,  121.1185 Ry                                                             
                                                                                                    
   TITEL  = PAW_PBE Cr_pv 02Aug2007                                                                 
   LULTRA =        F    use ultrasoft PP ?                                                          
   IUNSCR =        1    unscreen: 0-lin 1-nonlin 2-no                                               
   RPACOR =    2.080    partial core radius                                                         
   POMASS =   51.996; ZVAL   =   12.000    mass and valenz                                          
   RCORE  =    2.300    outmost cutoff radius                                                       
   RWIGS  =    2.500; RWIGS  =    1.323    wigner-seitz radius (au A)                               
   ENMAX  =  265.681; ENMIN  =  199.261 eV                                                          
   ICORE  =        3    local potential                                                             
   LCOR   =        T    correct aug charges                                                         
   LPAW   =        T    paw PP                                                                      
   EAUG   =  519.424                                                                                
   DEXC   =    0.000                                                                                
   RMAX   =    2.356    core radius for proj-oper                                                   
   RAUG   =    1.300    factor for augmentation sphere                                              
   RDEP   =    2.447    radius for radial grids                                                     
   RDEPT  =    1.882    core radius for aug-charge                                                  
                                                                                                    
   Atomic configuration                                                                             
    8 entries                                                                                       
     n  l   j            E        occ.                                                              
     1  0  0.50     -5880.4963   2.0000                                                             
     2  0  0.50      -667.0865   2.0000                                                             
     2  1  1.50      -560.6250   6.0000                                                             
     3  0  0.50       -73.9860   2.0000                                                             
     3  1  1.50       -45.4378   6.0000                                                             
     3  2  2.50        -2.9137   5.0000                                                             
     4  0  0.50        -4.0071   1.0000                                                             
     4  3  2.50        -1.3606   0.0000                                                             
   Description                                                                                      
     l       E           TYP  RCUT    TYP  RCUT                                                     
     1    -45.4377911     23  2.000                                                                 
     1      1.3605826     23  2.000                                                                 
     2     -2.9136672     23  2.300                                                                 
     2     -4.2742498     23  2.300                                                                 
     0     -4.0071320     23  2.300                                                                 
     0      9.4498803     23  2.300                                                                 
     3      2.7211652     23  2.300                                                                 
  local pseudopotential read in
  partial core-charges read in
  partial kinetic energy density read in
  atomic valenz-charges read in
  non local Contribution for L=           1  read in
    real space projection operators read in
  non local Contribution for L=           1  read in
    real space projection operators read in
  non local Contribution for L=           2  read in
    real space projection operators read in
  non local Contribution for L=           2  read in
    real space projection operators read in
  non local Contribution for L=           0  read in
    real space projection operators read in
  non local Contribution for L=           0  read in
    real space projection operators read in
    PAW grid and wavefunctions read in
 
   number of l-projection  operators is LMAX  =           6
   number of lm-projection operators is LMMAX =          18
 
 POTCAR:    PAW_PBE S 06Sep2000                   
   VRHFIN =S : s2p4                                                                                 
   LEXCH  = PE                                                                                      
   EATOM  =   276.8230 eV,   20.3459 Ry                                                             
                                                                                                    
   TITEL  = PAW_PBE S 06Sep2000                                                                     
   LULTRA =        F    use ultrasoft PP ?                                                          
   IUNSCR =        1    unscreen: 0-lin 1-nonlin 2-no                                               
   RPACOR =    1.500    partial core radius                                                         
   POMASS =   32.066; ZVAL   =    6.000    mass and valenz                                          
   RCORE  =    1.900    outmost cutoff radius                                                       
   RWIGS  =    2.200; RWIGS  =    1.164    wigner-seitz radius (au A)                               
   ENMAX  =  258.689; ENMIN  =  194.016 eV                                                          
   ICORE  =        2    local potential                                                             
   LCOR   =        T    correct aug charges                                                         
   LPAW   =        T    paw PP                                                                      
   EAUG   =  335.092                                                                                
   DEXC   =    0.000                                                                                
   RMAX   =    1.942    core radius for proj-oper                                                   
   RAUG   =    1.300    factor for augmentation sphere                                              
   RDEP   =    1.954    radius for radial grids                                                     
   RDEPT  =    1.744    core radius for aug-charge                                                  
                                                                                                    
   Atomic configuration                                                                             
    6 entries                                                                                       
     n  l   j            E        occ.                                                              
     1  0  0.50     -2405.8406   2.0000                                                             
     2  0  0.50      -211.7007   2.0000                                                             
     2  1  1.50      -156.4958   6.0000                                                             
     3  0  0.50       -17.2562   2.0000                                                             
     3  1  0.50        -7.0085   4.0000                                                             
     3  2  1.50        -6.8029   0.0000                                                             
   Description                                                                                      
     l       E           TYP  RCUT    TYP  RCUT                                                     
     0    -17.2561641     23  1.900                                                                 
     0    -15.8743224     23  1.900                                                                 
     1     -7.0085400     23  1.900                                                                 
     1     -2.7779785     23  1.900                                                                 
     2     -6.8029130     23  1.900                                                                 
  local pseudopotential read in
  partial core-charges read in
  partial kinetic energy density read in
  atomic valenz-charges read in
  non local Contribution for L=           0  read in
    real space projection operators read in
  non local Contribution for L=           0  read in
    real space projection operators read in
  non local Contribution for L=           1  read in
    real space projection operators read in
  non local Contribution for L=           1  read in
    real space projection operators read in
    PAW grid and wavefunctions read in
 
   number of l-projection  operators is LMAX  =           4
   number of lm-projection operators is LMMAX =           8
 
 POTCAR:    PAW_PBE Te 08Apr2002                  
   VRHFIN =Te: s2p4                                                                                 
   LEXCH  = PE                                                                                      
   EATOM  =   223.2721 eV,   16.4100 Ry                                                             
                                                                                                    
   TITEL  = PAW_PBE Te 08Apr2002                                                                    
   LULTRA =        F    use ultrasoft PP ?                                                          
   IUNSCR =        1    unscreen: 0-lin 1-nonlin 2-no                                               
   RPACOR =    2.200    partial core radius                                                         
   POMASS =  127.600; ZVAL   =    6.000    mass and valenz                                          
   RCORE  =    2.300    outmost cutoff radius                                                       
   RWIGS  =    2.900; RWIGS  =    1.535    wigner-seitz radius (au A)                               
   ENMAX  =  174.982; ENMIN  =  131.236 eV                                                          
   ICORE  =        3    local potential                                                             
   LCOR   =        T    correct aug charges                                                         
   LPAW   =        T    paw PP                                                                      
   EAUG   =  368.792                                                                                
   DEXC   =    0.000                                                                                
   RMAX   =    2.345    core radius for proj-oper                                                   
   RAUG   =    1.300    factor for augmentation sphere                                              
   RDEP   =    2.397    radius for radial grids                                                     
   RDEPT  =    2.174    core radius for aug-charge                                                  
                                                                                                    
   Atomic configuration                                                                             
   13 entries                                                                                       
     n  l   j            E        occ.                                                              
     1  0  0.50    -31621.2075   2.0000                                                             
     2  0  0.50     -4848.7941   2.0000                                                             
     2  1  1.50     -4352.1960   6.0000                                                             
     3  0  0.50      -964.9612   2.0000                                                             
     3  1  1.50      -803.6179   6.0000                                                             
     3  2  2.50      -559.8710  10.0000                                                             
     4  0  0.50      -164.3522   2.0000                                                             
     4  1  1.50      -114.3756   6.0000                                                             
     4  2  2.50       -41.6483  10.0000                                                             
     5  0  0.50       -15.1072   2.0000                                                             
     5  1  0.50        -5.9526   4.0000                                                             
     5  2  1.50        -5.4423   0.0000                                                             
     4  3  2.50        -5.4423   0.0000                                                             
   Description                                                                                      
     l       E           TYP  RCUT    TYP  RCUT                                                     
     0    -15.1072389     23  2.300                                                                 
     0    -16.4678215     23  2.300                                                                 
     1     -5.9526306     23  2.300                                                                 
     1     -2.4873968     23  2.300                                                                 
     2     -5.4423304     23  2.300                                                                 
     3     -1.3605826     23  2.300                                                                 
  local pseudopotential read in
  partial core-charges read in
  partial kinetic energy density read in
  atomic valenz-charges read in
  non local Contribution for L=           0  read in
    real space projection operators read in
  non local Contribution for L=           0  read in
    real space projection operators read in
  non local Contribution for L=           1  read in
    real space projection operators read in
  non local Contribution for L=           1  read in
    real space projection operators read in
  non local Contribution for L=           2  read in
    real space projection operators read in
    PAW grid and wavefunctions read in
 
   number of l-projection  operators is LMAX  =           5
   number of lm-projection operators is LMMAX =          13
 
  PAW_PBE Cr_pv 02Aug2007               :
 energy of atom  1       EATOM=-1647.9177
 kinetic energy error for atom=    0.0585 (will be added to EATOM!!)
  PAW_PBE S 06Sep2000                   :
 energy of atom  2       EATOM= -276.8230
 kinetic energy error for atom=    0.0053 (will be added to EATOM!!)
  PAW_PBE Te 08Apr2002                  :
 energy of atom  3       EATOM= -223.2721
 kinetic energy error for atom=    0.0022 (will be added to EATOM!!)
 
 
 POSCAR: Cr S Te
  positions in direct lattice
  velocities in cartesian coordinates
 exchange correlation table for  LEXCH =        8
   RHO(1)=    0.500       N(1)  =     2000
   RHO(2)=  100.500       N(2)  =     4000
 


--------------------------------------------------------------------------------------------------------


 ion  position               nearest neighbor table
   1  0.000  0.000  0.109-   2 2.34   2 2.34   2 2.34   3 2.84   3 2.84   3 2.84
   2  0.667  0.333  0.069-   1 2.34   1 2.34   1 2.34
   3  0.333  0.667  0.175-   1 2.84   1 2.84   1 2.84
 

IMPORTANT INFORMATION: All symmetrisations will be switched off!
NOSYMM: (Re-)initialisation of all symmetry stuff for point group C_1.


----------------------------------------------------------------------------------------

                                     Primitive cell                                     

  volume of cell :     316.1269

  direct lattice vectors                    reciprocal lattice vectors
     3.427808124  0.000000218  0.000000000     0.291731604  0.168431348  0.000000000
    -1.713904293  2.968568820  0.000000000    -0.000000021  0.336862651 -0.000000000
    -0.000000000  0.000000000 31.066888743     0.000000000  0.000000000  0.032188611

  length of vectors
     3.427808124  3.427808158 31.066888743     0.336862655  0.336862651  0.032188611

  position of ions in fractional coordinates (direct lattice)
     0.000000000  0.000000000  0.109235567
     0.666667000  0.333333000  0.069107151
     0.333334175  0.666667000  0.174792033

  ion indices of the primitive-cell ions
   primitive index   ion index
                 1           1
                 2           2
                 3           3

----------------------------------------------------------------------------------------

 
 
 KPOINTS: pymatgen with grid density = 603 / numbe

Automatic generation of k-mesh.
 Grid dimensions read from file:
 generate k-points for:   25   25    1

 Generating k-lattice:

  Cartesian coordinates                     Fractional coordinates (reciprocal lattice)
     0.011669264  0.006737254  0.000000000     0.040000000  0.000000000 -0.000000000
    -0.000000001  0.013474506 -0.000000000     0.000000000  0.040000000  0.000000000
     0.000000000  0.000000000  0.032188611     0.000000000  0.000000000  1.000000000

  Length of vectors
     0.013474506  0.013474506  0.032188611

  Shift w.r.t. Gamma in fractional coordinates (k-lattice)
     0.000000000  0.000000000  0.000000000

 TETIRR: Found   3750 inequivalent tetrahedra from     3750
 
 Subroutine IBZKPT returns following result:
 ===========================================
 
 Found    625 irreducible k-points:
 
 Following reciprocal coordinates:
            Coordinates               Weight
  0.000000  0.000000  0.000000      1.000000
  0.040000  0.000000  0.000000      1.000000
  0.080000  0.000000  0.000000      1.000000
  0.120000  0.000000  0.000000      1.000000
  0.160000  0.000000  0.000000      1.000000
  0.200000  0.000000  0.000000      1.000000
  0.240000 -0.000000  0.000000      1.000000
  0.280000  0.000000  0.000000      1.000000
  0.320000  0.000000  0.000000      1.000000
  0.360000  0.000000  0.000000      1.000000
  0.400000  0.000000 -0.000000      1.000000
  0.440000  0.000000  0.000000      1.000000
  0.480000  0.000000 -0.000000      1.000000
 -0.480000  0.000000  0.000000      1.000000
 -0.440000  0.000000  0.000000      1.000000
 -0.400000  0.000000  0.000000      1.000000
 -0.360000  0.000000 -0.000000      1.000000
 -0.320000 -0.000000 -0.000000      1.000000
 -0.280000 -0.000000 -0.000000      1.000000
 -0.240000  0.000000  0.000000      1.000000
 -0.200000  0.000000 -0.000000      1.000000
 -0.160000  0.000000 -0.000000      1.000000
 -0.120000 -0.000000 -0.000000      1.000000
 -0.080000  0.000000 -0.000000      1.000000
 -0.040000  0.000000 -0.000000      1.000000
 -0.000000  0.040000  0.000000      1.000000
  0.040000  0.040000  0.000000      1.000000
  0.080000  0.040000  0.000000      1.000000
  0.120000  0.040000  0.000000      1.000000
  0.160000  0.040000 -0.000000      1.000000
  0.200000  0.040000  0.000000      1.000000
  0.240000  0.040000  0.000000      1.000000
  0.280000  0.040000  0.000000      1.000000
  0.320000  0.040000  0.000000      1.000000
  0.360000  0.040000  0.000000      1.000000
  0.400000  0.040000  0.000000      1.000000
  0.440000  0.040000  0.000000      1.000000
  0.480000  0.040000 -0.000000      1.000000
 -0.480000  0.040000  0.000000      1.000000
 -0.440000  0.040000 -0.000000      1.000000
 -0.400000  0.040000  0.000000      1.000000
 -0.360000  0.040000 -0.000000      1.000000
 -0.320000  0.040000 -0.000000      1.000000
 -0.280000  0.040000 -0.000000      1.000000
 -0.240000  0.040000  0.000000      1.000000
 -0.200000  0.040000 -0.000000      1.000000
 -0.160000  0.040000 -0.000000      1.000000
 -0.120000  0.040000 -0.000000      1.000000
 -0.080000  0.040000 -0.000000      1.000000
 -0.040000  0.040000  0.000000      1.000000
 -0.000000  0.080000  0.000000      1.000000
  0.040000  0.080000  0.000000      1.000000
  0.080000  0.080000  0.000000      1.000000
  0.120000  0.080000  0.000000      1.000000
  0.160000  0.080000  0.000000      1.000000
  0.200000  0.080000  0.000000      1.000000
  0.240000  0.080000 -0.000000      1.000000
  0.280000  0.080000 -0.000000      1.000000
  0.320000  0.080000  0.000000      1.000000
  0.360000  0.080000  0.000000      1.000000
  0.400000  0.080000  0.000000      1.000000
  0.440000  0.080000  0.000000      1.000000
  0.480000  0.080000  0.000000      1.000000
 -0.480000  0.080000  0.000000      1.000000
 -0.440000  0.080000  0.000000      1.000000
 -0.400000  0.080000 -0.000000      1.000000
 -0.360000  0.080000 -0.000000      1.000000
 -0.320000  0.080000 -0.000000      1.000000
 -0.280000  0.080000  0.000000      1.000000
 -0.240000  0.080000 -0.000000      1.000000
 -0.200000  0.080000 -0.000000      1.000000
 -0.160000  0.080000 -0.000000      1.000000
 -0.120000  0.080000 -0.000000      1.000000
 -0.080000  0.080000  0.000000      1.000000
 -0.040000  0.080000 -0.000000      1.000000
  0.000000  0.120000  0.000000      1.000000
  0.040000  0.120000  0.000000      1.000000
  0.080000  0.120000  0.000000      1.000000
  0.120000  0.120000  0.000000      1.000000
  0.160000  0.120000  0.000000      1.000000
  0.200000  0.120000 -0.000000      1.000000
  0.240000  0.120000  0.000000      1.000000
  0.280000  0.120000  0.000000      1.000000
  0.320000  0.120000  0.000000      1.000000
  0.360000  0.120000  0.000000      1.000000
  0.400000  0.120000  0.000000      1.000000
  0.440000  0.120000 -0.000000      1.000000
  0.480000  0.120000  0.000000      1.000000
 -0.480000  0.120000 -0.000000      1.000000
 -0.440000  0.120000  0.000000      1.000000
 -0.400000  0.120000 -0.000000      1.000000
 -0.360000  0.120000 -0.000000      1.000000
 -0.320000  0.120000 -0.000000      1.000000
 -0.280000  0.120000  0.000000      1.000000
 -0.240000  0.120000  0.000000      1.000000
 -0.200000  0.120000 -0.000000      1.000000
 -0.160000  0.120000 -0.000000      1.000000
 -0.120000  0.120000 -0.000000      1.000000
 -0.080000  0.120000  0.000000      1.000000
 -0.040000  0.120000  0.000000      1.000000
 -0.000000  0.160000  0.000000      1.000000
  0.040000  0.160000  0.000000      1.000000
  0.080000  0.160000  0.000000      1.000000
  0.120000  0.160000  0.000000      1.000000
  0.160000  0.160000  0.000000      1.000000
  0.200000  0.160000  0.000000      1.000000
  0.240000  0.160000  0.000000      1.000000
  0.280000  0.160000  0.000000      1.000000
  0.320000  0.160000  0.000000      1.000000
  0.360000  0.160000  0.000000      1.000000
  0.400000  0.160000 -0.000000      1.000000
  0.440000  0.160000  0.000000      1.000000
  0.480000  0.160000  0.000000      1.000000
 -0.480000  0.160000  0.000000      1.000000
 -0.440000  0.160000 -0.000000      1.000000
 -0.400000  0.160000 -0.000000      1.000000
 -0.360000  0.160000 -0.000000      1.000000
 -0.320000  0.160000 -0.000000      1.000000
 -0.280000  0.160000 -0.000000      1.000000
 -0.240000  0.160000 -0.000000      1.000000
 -0.200000  0.160000 -0.000000      1.000000
 -0.160000  0.160000  0.000000      1.000000
 -0.120000  0.160000 -0.000000      1.000000
 -0.080000  0.160000 -0.000000      1.000000
 -0.040000  0.160000 -0.000000      1.000000
  0.000000  0.200000  0.000000      1.000000
  0.040000  0.200000  0.000000      1.000000
  0.080000  0.200000  0.000000      1.000000
  0.120000  0.200000  0.000000      1.000000
  0.160000  0.200000  0.000000      1.000000
  0.200000  0.200000  0.000000      1.000000
  0.240000  0.200000  0.000000      1.000000
  0.280000  0.200000  0.000000      1.000000
  0.320000  0.200000  0.000000      1.000000
  0.360000  0.200000  0.000000      1.000000
  0.400000  0.200000  0.000000      1.000000
  0.440000  0.200000 -0.000000      1.000000
  0.480000  0.200000 -0.000000      1.000000
 -0.480000  0.200000  0.000000      1.000000
 -0.440000  0.200000 -0.000000      1.000000
 -0.400000  0.200000  0.000000      1.000000
 -0.360000  0.200000 -0.000000      1.000000
 -0.320000  0.200000 -0.000000      1.000000
 -0.280000  0.200000 -0.000000      1.000000
 -0.240000  0.200000  0.000000      1.000000
 -0.200000  0.200000  0.000000      1.000000
 -0.160000  0.200000  0.000000      1.000000
 -0.120000  0.200000 -0.000000      1.000000
 -0.080000  0.200000 -0.000000      1.000000
 -0.040000  0.200000  0.000000      1.000000
  0.000000  0.240000  0.000000      1.000000
  0.040000  0.240000 -0.000000      1.000000
  0.080000  0.240000  0.000000      1.000000
  0.120000  0.240000  0.000000      1.000000
  0.160000  0.240000  0.000000      1.000000
  0.200000  0.240000  0.000000      1.000000
  0.240000  0.240000 -0.000000      1.000000
  0.280000  0.240000  0.000000      1.000000
  0.320000  0.240000  0.000000      1.000000
  0.360000  0.240000  0.000000      1.000000
  0.400000  0.240000 -0.000000      1.000000
  0.440000  0.240000 -0.000000      1.000000
  0.480000  0.240000  0.000000      1.000000
 -0.480000  0.240000 -0.000000      1.000000
 -0.440000  0.240000  0.000000      1.000000
 -0.400000  0.240000 -0.000000      1.000000
 -0.360000  0.240000 -0.000000      1.000000
 -0.320000  0.240000 -0.000000      1.000000
 -0.280000  0.240000 -0.000000      1.000000
 -0.240000  0.240000 -0.000000      1.000000
 -0.200000  0.240000 -0.000000      1.000000
 -0.160000  0.240000 -0.000000      1.000000
 -0.120000  0.240000  0.000000      1.000000
 -0.080000  0.240000  0.000000      1.000000
 -0.040000  0.240000 -0.000000      1.000000
 -0.000000  0.280000 -0.000000      1.000000
  0.040000  0.280000  0.000000      1.000000
  0.080000  0.280000  0.000000      1.000000
  0.120000  0.280000  0.000000      1.000000
  0.160000  0.280000  0.000000      1.000000
  0.200000  0.280000  0.000000      1.000000
  0.240000  0.280000 -0.000000      1.000000
  0.280000  0.280000  0.000000      1.000000
  0.320000  0.280000  0.000000      1.000000
  0.360000  0.280000  0.000000      1.000000
  0.400000  0.280000 -0.000000      1.000000
  0.440000  0.280000 -0.000000      1.000000
  0.480000  0.280000 -0.000000      1.000000
 -0.480000  0.280000 -0.000000      1.000000
 -0.440000  0.280000 -0.000000      1.000000
 -0.400000  0.280000  0.000000      1.000000
 -0.360000  0.280000 -0.000000      1.000000
 -0.320000  0.280000 -0.000000      1.000000
 -0.280000  0.280000 -0.000000      1.000000
 -0.240000  0.280000  0.000000      1.000000
 -0.200000  0.280000  0.000000      1.000000
 -0.160000  0.280000  0.000000      1.000000
 -0.120000  0.280000 -0.000000      1.000000
 -0.080000  0.280000 -0.000000      1.000000
 -0.040000  0.280000 -0.000000      1.000000
  0.000000  0.320000  0.000000      1.000000
  0.040000  0.320000  0.000000      1.000000
  0.080000  0.320000  0.000000      1.000000
  0.120000  0.320000  0.000000      1.000000
  0.160000  0.320000  0.000000      1.000000
  0.200000  0.320000  0.000000      1.000000
  0.240000  0.320000  0.000000      1.000000
  0.280000  0.320000  0.000000      1.000000
  0.320000  0.320000  0.000000      1.000000
  0.360000  0.320000  0.000000      1.000000
  0.400000  0.320000  0.000000      1.000000
  0.440000  0.320000  0.000000      1.000000
  0.480000  0.320000  0.000000      1.000000
 -0.480000  0.320000 -0.000000      1.000000
 -0.440000  0.320000  0.000000      1.000000
 -0.400000  0.320000  0.000000      1.000000
 -0.360000  0.320000  0.000000      1.000000
 -0.320000  0.320000  0.000000      1.000000
 -0.280000  0.320000 -0.000000      1.000000
 -0.240000  0.320000  0.000000      1.000000
 -0.200000  0.320000 -0.000000      1.000000
 -0.160000  0.320000 -0.000000      1.000000
 -0.120000  0.320000 -0.000000      1.000000
 -0.080000  0.320000  0.000000      1.000000
 -0.040000  0.320000 -0.000000      1.000000
 -0.000000  0.360000  0.000000      1.000000
  0.040000  0.360000  0.000000      1.000000
  0.080000  0.360000  0.000000      1.000000
  0.120000  0.360000  0.000000      1.000000
  0.160000  0.360000  0.000000      1.000000
  0.200000  0.360000  0.000000      1.000000
  0.240000  0.360000  0.000000      1.000000
  0.280000  0.360000  0.000000      1.000000
  0.320000  0.360000  0.000000      1.000000
  0.360000  0.360000  0.000000      1.000000
  0.400000  0.360000  0.000000      1.000000
  0.440000  0.360000  0.000000      1.000000
  0.480000  0.360000 -0.000000      1.000000
 -0.480000  0.360000  0.000000      1.000000
 -0.440000  0.360000 -0.000000      1.000000
 -0.400000  0.360000  0.000000      1.000000
 -0.360000  0.360000  0.000000      1.000000
 -0.320000  0.360000 -0.000000      1.000000
 -0.280000  0.360000  0.000000      1.000000
 -0.240000  0.360000  0.000000      1.000000
 -0.200000  0.360000 -0.000000      1.000000
 -0.160000  0.360000 -0.000000      1.000000
 -0.120000  0.360000 -0.000000      1.000000
 -0.080000  0.360000  0.000000      1.000000
 -0.040000  0.360000  0.000000      1.000000
 -0.000000  0.400000 -0.000000      1.000000
  0.040000  0.400000  0.000000      1.000000
  0.080000  0.400000  0.000000      1.000000
  0.120000  0.400000  0.000000      1.000000
  0.160000  0.400000 -0.000000      1.000000
  0.200000  0.400000  0.000000      1.000000
  0.240000  0.400000 -0.000000      1.000000
  0.280000  0.400000  0.000000      1.000000
  0.320000  0.400000  0.000000      1.000000
  0.360000  0.400000  0.000000      1.000000
  0.400000  0.400000  0.000000      1.000000
  0.440000  0.400000 -0.000000      1.000000
  0.480000  0.400000 -0.000000      1.000000
 -0.480000  0.400000  0.000000      1.000000
 -0.440000  0.400000 -0.000000      1.000000
 -0.400000  0.400000 -0.000000      1.000000
 -0.360000  0.400000  0.000000      1.000000
 -0.320000  0.400000  0.000000      1.000000
 -0.280000  0.400000 -0.000000      1.000000
 -0.240000  0.400000 -0.000000      1.000000
 -0.200000  0.400000 -0.000000      1.000000
 -0.160000  0.400000 -0.000000      1.000000
 -0.120000  0.400000 -0.000000      1.000000
 -0.080000  0.400000  0.000000      1.000000
 -0.040000  0.400000  0.000000      1.000000
  0.000000  0.440000  0.000000      1.000000
  0.040000  0.440000  0.000000      1.000000
  0.080000  0.440000  0.000000      1.000000
  0.120000  0.440000  0.000000      1.000000
  0.160000  0.440000  0.000000      1.000000
  0.200000  0.440000  0.000000      1.000000
  0.240000  0.440000  0.000000      1.000000
  0.280000  0.440000  0.000000      1.000000
  0.320000  0.440000  0.000000      1.000000
  0.360000  0.440000  0.000000      1.000000
  0.400000  0.440000  0.000000      1.000000
  0.440000  0.440000 -0.000000      1.000000
  0.480000  0.440000  0.000000      1.000000
 -0.480000  0.440000 -0.000000      1.000000
 -0.440000  0.440000 -0.000000      1.000000
 -0.400000  0.440000 -0.000000      1.000000
 -0.360000  0.440000  0.000000      1.000000
 -0.320000  0.440000 -0.000000      1.000000
 -0.280000  0.440000  0.000000      1.000000
 -0.240000  0.440000  0.000000      1.000000
 -0.200000  0.440000  0.000000      1.000000
 -0.160000  0.440000  0.000000      1.000000
 -0.120000  0.440000  0.000000      1.000000
 -0.080000  0.440000  0.000000      1.000000
 -0.040000  0.440000  0.000000      1.000000
 -0.000000  0.480000 -0.000000      1.000000
  0.040000  0.480000  0.000000      1.000000
  0.080000  0.480000 -0.000000      1.000000
  0.120000  0.480000  0.000000      1.000000
  0.160000  0.480000  0.000000      1.000000
  0.200000  0.480000  0.000000      1.000000
  0.240000  0.480000 -0.000000      1.000000
  0.280000  0.480000  0.000000      1.000000
  0.320000  0.480000  0.000000      1.000000
  0.360000  0.480000  0.000000      1.000000
  0.400000  0.480000  0.000000      1.000000
  0.440000  0.480000 -0.000000      1.000000
  0.480000  0.480000 -0.000000      1.000000
 -0.480000  0.480000 -0.000000      1.000000
 -0.440000  0.480000 -0.000000      1.000000
 -0.400000  0.480000  0.000000      1.000000
 -0.360000  0.480000 -0.000000      1.000000
 -0.320000  0.480000  0.000000      1.000000
 -0.280000  0.480000 -0.000000      1.000000
 -0.240000  0.480000  0.000000      1.000000
 -0.200000  0.480000  0.000000      1.000000
 -0.160000  0.480000  0.000000      1.000000
 -0.120000  0.480000  0.000000      1.000000
 -0.080000  0.480000  0.000000      1.000000
 -0.040000  0.480000  0.000000      1.000000
  0.000000 -0.480000  0.000000      1.000000
  0.040000 -0.480000  0.000000      1.000000
  0.080000 -0.480000  0.000000      1.000000
  0.120000 -0.480000  0.000000      1.000000
  0.160000 -0.480000 -0.000000      1.000000
  0.200000 -0.480000 -0.000000      1.000000
  0.240000 -0.480000  0.000000      1.000000
  0.280000 -0.480000  0.000000      1.000000
  0.320000 -0.480000 -0.000000      1.000000
  0.360000 -0.480000  0.000000      1.000000
  0.400000 -0.480000 -0.000000      1.000000
  0.440000 -0.480000  0.000000      1.000000
  0.480000 -0.480000  0.000000      1.000000
 -0.480000 -0.480000  0.000000      1.000000
 -0.440000 -0.480000  0.000000      1.000000
 -0.400000 -0.480000 -0.000000      1.000000
 -0.360000 -0.480000 -0.000000      1.000000
 -0.320000 -0.480000 -0.000000      1.000000
 -0.280000 -0.480000  0.000000      1.000000
 -0.240000 -0.480000  0.000000      1.000000
 -0.200000 -0.480000  0.000000      1.000000
 -0.160000 -0.480000 -0.000000      1.000000
 -0.120000 -0.480000 -0.000000      1.000000
 -0.080000 -0.480000  0.000000      1.000000
 -0.040000 -0.480000 -0.000000      1.000000
 -0.000000 -0.440000 -0.000000      1.000000
  0.040000 -0.440000 -0.000000      1.000000
  0.080000 -0.440000 -0.000000      1.000000
  0.120000 -0.440000  0.000000      1.000000
  0.160000 -0.440000 -0.000000      1.000000
  0.200000 -0.440000  0.000000      1.000000
  0.240000 -0.440000  0.000000      1.000000
  0.280000 -0.440000  0.000000      1.000000
  0.320000 -0.440000  0.000000      1.000000
  0.360000 -0.440000  0.000000      1.000000
  0.400000 -0.440000  0.000000      1.000000
  0.440000 -0.440000  0.000000      1.000000
  0.480000 -0.440000  0.000000      1.000000
 -0.480000 -0.440000  0.000000      1.000000
 -0.440000 -0.440000  0.000000      1.000000
 -0.400000 -0.440000 -0.000000      1.000000
 -0.360000 -0.440000 -0.000000      1.000000
 -0.320000 -0.440000 -0.000000      1.000000
 -0.280000 -0.440000 -0.000000      1.000000
 -0.240000 -0.440000 -0.000000      1.000000
 -0.200000 -0.440000 -0.000000      1.000000
 -0.160000 -0.440000 -0.000000      1.000000
 -0.120000 -0.440000 -0.000000      1.000000
 -0.080000 -0.440000 -0.000000      1.000000
 -0.040000 -0.440000 -0.000000      1.000000
  0.000000 -0.400000  0.000000      1.000000
  0.040000 -0.400000 -0.000000      1.000000
  0.080000 -0.400000 -0.000000      1.000000
  0.120000 -0.400000  0.000000      1.000000
  0.160000 -0.400000  0.000000      1.000000
  0.200000 -0.400000  0.000000      1.000000
  0.240000 -0.400000  0.000000      1.000000
  0.280000 -0.400000  0.000000      1.000000
  0.320000 -0.400000  0.000000      1.000000
  0.360000 -0.400000  0.000000      1.000000
  0.400000 -0.400000  0.000000      1.000000
  0.440000 -0.400000  0.000000      1.000000
  0.480000 -0.400000  0.000000      1.000000
 -0.480000 -0.400000  0.000000      1.000000
 -0.440000 -0.400000  0.000000      1.000000
 -0.400000 -0.400000  0.000000      1.000000
 -0.360000 -0.400000 -0.000000      1.000000
 -0.320000 -0.400000 -0.000000      1.000000
 -0.280000 -0.400000 -0.000000      1.000000
 -0.240000 -0.400000  0.000000      1.000000
 -0.200000 -0.400000 -0.000000      1.000000
 -0.160000 -0.400000  0.000000      1.000000
 -0.120000 -0.400000  0.000000      1.000000
 -0.080000 -0.400000 -0.000000      1.000000
 -0.040000 -0.400000 -0.000000      1.000000
  0.000000 -0.360000 -0.000000      1.000000
  0.040000 -0.360000  0.000000      1.000000
  0.080000 -0.360000 -0.000000      1.000000
  0.120000 -0.360000  0.000000      1.000000
  0.160000 -0.360000  0.000000      1.000000
  0.200000 -0.360000  0.000000      1.000000
  0.240000 -0.360000 -0.000000      1.000000
  0.280000 -0.360000  0.000000      1.000000
  0.320000 -0.360000  0.000000      1.000000
  0.360000 -0.360000 -0.000000      1.000000
  0.400000 -0.360000 -0.000000      1.000000
  0.440000 -0.360000  0.000000      1.000000
  0.480000 -0.360000 -0.000000      1.000000
 -0.480000 -0.360000  0.000000      1.000000
 -0.440000 -0.360000 -0.000000      1.000000
 -0.400000 -0.360000 -0.000000      1.000000
 -0.360000 -0.360000 -0.000000      1.000000
 -0.320000 -0.360000 -0.000000      1.000000
 -0.280000 -0.360000  0.000000      1.000000
 -0.240000 -0.360000 -0.000000      1.000000
 -0.200000 -0.360000 -0.000000      1.000000
 -0.160000 -0.360000  0.000000      1.000000
 -0.120000 -0.360000 -0.000000      1.000000
 -0.080000 -0.360000 -0.000000      1.000000
 -0.040000 -0.360000 -0.000000      1.000000
 -0.000000 -0.320000 -0.000000      1.000000
  0.040000 -0.320000  0.000000      1.000000
  0.080000 -0.320000  0.000000      1.000000
  0.120000 -0.320000  0.000000      1.000000
  0.160000 -0.320000  0.000000      1.000000
  0.200000 -0.320000  0.000000      1.000000
  0.240000 -0.320000 -0.000000      1.000000
  0.280000 -0.320000  0.000000      1.000000
  0.320000 -0.320000  0.000000      1.000000
  0.360000 -0.320000  0.000000      1.000000
  0.400000 -0.320000 -0.000000      1.000000
  0.440000 -0.320000  0.000000      1.000000
  0.480000 -0.320000  0.000000      1.000000
 -0.480000 -0.320000 -0.000000      1.000000
 -0.440000 -0.320000 -0.000000      1.000000
 -0.400000 -0.320000  0.000000      1.000000
 -0.360000 -0.320000 -0.000000      1.000000
 -0.320000 -0.320000 -0.000000      1.000000
 -0.280000 -0.320000 -0.000000      1.000000
 -0.240000 -0.320000  0.000000      1.000000
 -0.200000 -0.320000 -0.000000      1.000000
 -0.160000 -0.320000 -0.000000      1.000000
 -0.120000 -0.320000 -0.000000      1.000000
 -0.080000 -0.320000 -0.000000      1.000000
 -0.040000 -0.320000  0.000000      1.000000
  0.000000 -0.280000  0.000000      1.000000
  0.040000 -0.280000  0.000000      1.000000
  0.080000 -0.280000  0.000000      1.000000
  0.120000 -0.280000  0.000000      1.000000
  0.160000 -0.280000  0.000000      1.000000
  0.200000 -0.280000  0.000000      1.000000
  0.240000 -0.280000  0.000000      1.000000
  0.280000 -0.280000  0.000000      1.000000
  0.320000 -0.280000  0.000000      1.000000
  0.360000 -0.280000  0.000000      1.000000
  0.400000 -0.280000 -0.000000      1.000000
  0.440000 -0.280000  0.000000      1.000000
  0.480000 -0.280000  0.000000      1.000000
 -0.480000 -0.280000  0.000000      1.000000
 -0.440000 -0.280000  0.000000      1.000000
 -0.400000 -0.280000  0.000000      1.000000
 -0.360000 -0.280000  0.000000      1.000000
 -0.320000 -0.280000 -0.000000      1.000000
 -0.280000 -0.280000 -0.000000      1.000000
 -0.240000 -0.280000  0.000000      1.000000
 -0.200000 -0.280000 -0.000000      1.000000
 -0.160000 -0.280000 -0.000000      1.000000
 -0.120000 -0.280000 -0.000000      1.000000
 -0.080000 -0.280000 -0.000000      1.000000
 -0.040000 -0.280000  0.000000      1.000000
  0.000000 -0.240000 -0.000000      1.000000
  0.040000 -0.240000  0.000000      1.000000
  0.080000 -0.240000  0.000000      1.000000
  0.120000 -0.240000  0.000000      1.000000
  0.160000 -0.240000  0.000000      1.000000
  0.200000 -0.240000  0.000000      1.000000
  0.240000 -0.240000  0.000000      1.000000
  0.280000 -0.240000  0.000000      1.000000
  0.320000 -0.240000  0.000000      1.000000
  0.360000 -0.240000  0.000000      1.000000
  0.400000 -0.240000  0.000000      1.000000
  0.440000 -0.240000  0.000000      1.000000
  0.480000 -0.240000  0.000000      1.000000
 -0.480000 -0.240000  0.000000      1.000000
 -0.440000 -0.240000  0.000000      1.000000
 -0.400000 -0.240000  0.000000      1.000000
 -0.360000 -0.240000  0.000000      1.000000
 -0.320000 -0.240000 -0.000000      1.000000
 -0.280000 -0.240000  0.000000      1.000000
 -0.240000 -0.240000  0.000000      1.000000
 -0.200000 -0.240000  0.000000      1.000000
 -0.160000 -0.240000 -0.000000      1.000000
 -0.120000 -0.240000 -0.000000      1.000000
 -0.080000 -0.240000 -0.000000      1.000000
 -0.040000 -0.240000  0.000000      1.000000
  0.000000 -0.200000  0.000000      1.000000
  0.040000 -0.200000 -0.000000      1.000000
  0.080000 -0.200000  0.000000      1.000000
  0.120000 -0.200000  0.000000      1.000000
  0.160000 -0.200000  0.000000      1.000000
  0.200000 -0.200000 -0.000000      1.000000
  0.240000 -0.200000 -0.000000      1.000000
  0.280000 -0.200000  0.000000      1.000000
  0.320000 -0.200000  0.000000      1.000000
  0.360000 -0.200000  0.000000      1.000000
  0.400000 -0.200000  0.000000      1.000000
  0.440000 -0.200000  0.000000      1.000000
  0.480000 -0.200000  0.000000      1.000000
 -0.480000 -0.200000  0.000000      1.000000
 -0.440000 -0.200000  0.000000      1.000000
 -0.400000 -0.200000  0.000000      1.000000
 -0.360000 -0.200000 -0.000000      1.000000
 -0.320000 -0.200000 -0.000000      1.000000
 -0.280000 -0.200000 -0.000000      1.000000
 -0.240000 -0.200000  0.000000      1.000000
 -0.200000 -0.200000 -0.000000      1.000000
 -0.160000 -0.200000 -0.000000      1.000000
 -0.120000 -0.200000 -0.000000      1.000000
 -0.080000 -0.200000  0.000000      1.000000
 -0.040000 -0.200000 -0.000000      1.000000
  0.000000 -0.160000 -0.000000      1.000000
  0.040000 -0.160000  0.000000      1.000000
  0.080000 -0.160000  0.000000      1.000000
  0.120000 -0.160000  0.000000      1.000000
  0.160000 -0.160000  0.000000      1.000000
  0.200000 -0.160000  0.000000      1.000000
  0.240000 -0.160000  0.000000      1.000000
  0.280000 -0.160000  0.000000      1.000000
  0.320000 -0.160000  0.000000      1.000000
  0.360000 -0.160000  0.000000      1.000000
  0.400000 -0.160000  0.000000      1.000000
  0.440000 -0.160000  0.000000      1.000000
  0.480000 -0.160000 -0.000000      1.000000
 -0.480000 -0.160000  0.000000      1.000000
 -0.440000 -0.160000  0.000000      1.000000
 -0.400000 -0.160000  0.000000      1.000000
 -0.360000 -0.160000 -0.000000      1.000000
 -0.320000 -0.160000  0.000000      1.000000
 -0.280000 -0.160000  0.000000      1.000000
 -0.240000 -0.160000  0.000000      1.000000
 -0.200000 -0.160000 -0.000000      1.000000
 -0.160000 -0.160000 -0.000000      1.000000
 -0.120000 -0.160000 -0.000000      1.000000
 -0.080000 -0.160000 -0.000000      1.000000
 -0.040000 -0.160000  0.000000      1.000000
  0.000000 -0.120000 -0.000000      1.000000
  0.040000 -0.120000  0.000000      1.000000
  0.080000 -0.120000  0.000000      1.000000
  0.120000 -0.120000  0.000000      1.000000
  0.160000 -0.120000  0.000000      1.000000
  0.200000 -0.120000  0.000000      1.000000
  0.240000 -0.120000  0.000000      1.000000
  0.280000 -0.120000  0.000000      1.000000
  0.320000 -0.120000  0.000000      1.000000
  0.360000 -0.120000  0.000000      1.000000
  0.400000 -0.120000  0.000000      1.000000
  0.440000 -0.120000  0.000000      1.000000
  0.480000 -0.120000  0.000000      1.000000
 -0.480000 -0.120000  0.000000      1.000000
 -0.440000 -0.120000  0.000000      1.000000
 -0.400000 -0.120000 -0.000000      1.000000
 -0.360000 -0.120000  0.000000      1.000000
 -0.320000 -0.120000 -0.000000      1.000000
 -0.280000 -0.120000  0.000000      1.000000
 -0.240000 -0.120000 -0.000000      1.000000
 -0.200000 -0.120000  0.000000      1.000000
 -0.160000 -0.120000  0.000000      1.000000
 -0.120000 -0.120000 -0.000000      1.000000
 -0.080000 -0.120000  0.000000      1.000000
 -0.040000 -0.120000 -0.000000      1.000000
  0.000000 -0.080000 -0.000000      1.000000
  0.040000 -0.080000  0.000000      1.000000
  0.080000 -0.080000  0.000000      1.000000
  0.120000 -0.080000  0.000000      1.000000
  0.160000 -0.080000  0.000000      1.000000
  0.200000 -0.080000  0.000000      1.000000
  0.240000 -0.080000  0.000000      1.000000
  0.280000 -0.080000  0.000000      1.000000
  0.320000 -0.080000  0.000000      1.000000
  0.360000 -0.080000  0.000000      1.000000
  0.400000 -0.080000  0.000000      1.000000
  0.440000 -0.080000  0.000000      1.000000
  0.480000 -0.080000  0.000000      1.000000
 -0.480000 -0.080000 -0.000000      1.000000
 -0.440000 -0.080000 -0.000000      1.000000
 -0.400000 -0.080000  0.000000      1.000000
 -0.360000 -0.080000 -0.000000      1.000000
 -0.320000 -0.080000 -0.000000      1.000000
 -0.280000 -0.080000  0.000000      1.000000
 -0.240000 -0.080000  0.000000      1.000000
 -0.200000 -0.080000 -0.000000      1.000000
 -0.160000 -0.080000  0.000000      1.000000
 -0.120000 -0.080000 -0.000000      1.000000
 -0.080000 -0.080000 -0.000000      1.000000
 -0.040000 -0.080000 -0.000000      1.000000
  0.000000 -0.040000 -0.000000      1.000000
  0.040000 -0.040000  0.000000      1.000000
  0.080000 -0.040000  0.000000      1.000000
  0.120000 -0.040000  0.000000      1.000000
  0.160000 -0.040000  0.000000      1.000000
  0.200000 -0.040000  0.000000      1.000000
  0.240000 -0.040000 -0.000000      1.000000
  0.280000 -0.040000  0.000000      1.000000
  0.320000 -0.040000  0.000000      1.000000
  0.360000 -0.040000  0.000000      1.000000
  0.400000 -0.040000 -0.000000      1.000000
  0.440000 -0.040000  0.000000      1.000000
  0.480000 -0.040000  0.000000      1.000000
 -0.480000 -0.040000  0.000000      1.000000
 -0.440000 -0.040000  0.000000      1.000000
 -0.400000 -0.040000 -0.000000      1.000000
 -0.360000 -0.040000  0.000000      1.000000
 -0.320000 -0.040000 -0.000000      1.000000
 -0.280000 -0.040000 -0.000000      1.000000
 -0.240000 -0.040000  0.000000      1.000000
 -0.200000 -0.040000  0.000000      1.000000
 -0.160000 -0.040000  0.000000      1.000000
 -0.120000 -0.040000  0.000000      1.000000
 -0.080000 -0.040000  0.000000      1.000000
 -0.040000 -0.040000 -0.000000      1.000000
 
 Following cartesian coordinates:
            Coordinates               Weight
  0.000000  0.000000  0.000000      1.000000
  0.011669  0.006737  0.000000      1.000000
  0.023339  0.013475  0.000000      1.000000
  0.035008  0.020212  0.000000      1.000000
  0.046677  0.026949  0.000000      1.000000
  0.058346  0.033686  0.000000      1.000000
  0.070016  0.040424  0.000000      1.000000
  0.081685  0.047161  0.000000      1.000000
  0.093354  0.053898  0.000000      1.000000
  0.105023  0.060635  0.000000      1.000000
  0.116693  0.067373  0.000000      1.000000
  0.128362  0.074110  0.000000      1.000000
  0.140031  0.080847  0.000000      1.000000
 -0.140031 -0.080847 -0.000000      1.000000
 -0.128362 -0.074110 -0.000000      1.000000
 -0.116693 -0.067373 -0.000000      1.000000
 -0.105023 -0.060635 -0.000000      1.000000
 -0.093354 -0.053898 -0.000000      1.000000
 -0.081685 -0.047161 -0.000000      1.000000
 -0.070016 -0.040424 -0.000000      1.000000
 -0.058346 -0.033686 -0.000000      1.000000
 -0.046677 -0.026949 -0.000000      1.000000
 -0.035008 -0.020212 -0.000000      1.000000
 -0.023339 -0.013475 -0.000000      1.000000
 -0.011669 -0.006737 -0.000000      1.000000
 -0.000000  0.013475 -0.000000      1.000000
  0.011669  0.020212  0.000000      1.000000
  0.023339  0.026949  0.000000      1.000000
  0.035008  0.033686  0.000000      1.000000
  0.046677  0.040424  0.000000      1.000000
  0.058346  0.047161  0.000000      1.000000
  0.070016  0.053898  0.000000      1.000000
  0.081685  0.060635  0.000000      1.000000
  0.093354  0.067373  0.000000      1.000000
  0.105023  0.074110  0.000000      1.000000
  0.116693  0.080847  0.000000      1.000000
  0.128362  0.087584  0.000000      1.000000
  0.140031  0.094322  0.000000      1.000000
 -0.140031 -0.067373 -0.000000      1.000000
 -0.128362 -0.060635 -0.000000      1.000000
 -0.116693 -0.053898 -0.000000      1.000000
 -0.105023 -0.047161 -0.000000      1.000000
 -0.093354 -0.040424 -0.000000      1.000000
 -0.081685 -0.033686 -0.000000      1.000000
 -0.070016 -0.026949 -0.000000      1.000000
 -0.058346 -0.020212 -0.000000      1.000000
 -0.046677 -0.013475 -0.000000      1.000000
 -0.035008 -0.006737 -0.000000      1.000000
 -0.023339 -0.000000 -0.000000      1.000000
 -0.011669  0.006737 -0.000000      1.000000
 -0.000000  0.026949 -0.000000      1.000000
  0.011669  0.033686  0.000000      1.000000
  0.023339  0.040424  0.000000      1.000000
  0.035008  0.047161  0.000000      1.000000
  0.046677  0.053898  0.000000      1.000000
  0.058346  0.060635  0.000000      1.000000
  0.070016  0.067373  0.000000      1.000000
  0.081685  0.074110  0.000000      1.000000
  0.093354  0.080847  0.000000      1.000000
  0.105023  0.087584  0.000000      1.000000
  0.116693  0.094322  0.000000      1.000000
  0.128362  0.101059  0.000000      1.000000
  0.140031  0.107796  0.000000      1.000000
 -0.140031 -0.053898 -0.000000      1.000000
 -0.128362 -0.047161 -0.000000      1.000000
 -0.116693 -0.040424 -0.000000      1.000000
 -0.105023 -0.033686 -0.000000      1.000000
 -0.093354 -0.026949 -0.000000      1.000000
 -0.081685 -0.020212 -0.000000      1.000000
 -0.070016 -0.013475 -0.000000      1.000000
 -0.058346 -0.006737 -0.000000      1.000000
 -0.046677 -0.000000 -0.000000      1.000000
 -0.035008  0.006737 -0.000000      1.000000
 -0.023339  0.013475 -0.000000      1.000000
 -0.011669  0.020212 -0.000000      1.000000
 -0.000000  0.040424 -0.000000      1.000000
  0.011669  0.047161  0.000000      1.000000
  0.023339  0.053898  0.000000      1.000000
  0.035008  0.060635  0.000000      1.000000
  0.046677  0.067373  0.000000      1.000000
  0.058346  0.074110  0.000000      1.000000
  0.070016  0.080847  0.000000      1.000000
  0.081685  0.087584  0.000000      1.000000
  0.093354  0.094322  0.000000      1.000000
  0.105023  0.101059  0.000000      1.000000
  0.116693  0.107796  0.000000      1.000000
  0.128362  0.114533  0.000000      1.000000
  0.140031  0.121271  0.000000      1.000000
 -0.140031 -0.040424 -0.000000      1.000000
 -0.128362 -0.033686 -0.000000      1.000000
 -0.116693 -0.026949 -0.000000      1.000000
 -0.105023 -0.020212 -0.000000      1.000000
 -0.093354 -0.013475 -0.000000      1.000000
 -0.081685 -0.006737 -0.000000      1.000000
 -0.070016 -0.000000 -0.000000      1.000000
 -0.058346  0.006737 -0.000000      1.000000
 -0.046677  0.013475 -0.000000      1.000000
 -0.035008  0.020212 -0.000000      1.000000
 -0.023339  0.026949 -0.000000      1.000000
 -0.011669  0.033686 -0.000000      1.000000
 -0.000000  0.053898 -0.000000      1.000000
  0.011669  0.060635  0.000000      1.000000
  0.023339  0.067373  0.000000      1.000000
  0.035008  0.074110  0.000000      1.000000
  0.046677  0.080847  0.000000      1.000000
  0.058346  0.087584  0.000000      1.000000
  0.070016  0.094322  0.000000      1.000000
  0.081685  0.101059  0.000000      1.000000
  0.093354  0.107796  0.000000      1.000000
  0.105023  0.114533  0.000000      1.000000
  0.116693  0.121271  0.000000      1.000000
  0.128362  0.128008  0.000000      1.000000
  0.140031  0.134745  0.000000      1.000000
 -0.140031 -0.026949 -0.000000      1.000000
 -0.128362 -0.020212 -0.000000      1.000000
 -0.116693 -0.013475 -0.000000      1.000000
 -0.105023 -0.006737 -0.000000      1.000000
 -0.093354 -0.000000 -0.000000      1.000000
 -0.081685  0.006737 -0.000000      1.000000
 -0.070016  0.013475 -0.000000      1.000000
 -0.058346  0.020212 -0.000000      1.000000
 -0.046677  0.026949 -0.000000      1.000000
 -0.035008  0.033686 -0.000000      1.000000
 -0.023339  0.040424 -0.000000      1.000000
 -0.011669  0.047161 -0.000000      1.000000
 -0.000000  0.067373 -0.000000      1.000000
  0.011669  0.074110  0.000000      1.000000
  0.023339  0.080847  0.000000      1.000000
  0.035008  0.087584  0.000000      1.000000
  0.046677  0.094322  0.000000      1.000000
  0.058346  0.101059  0.000000      1.000000
  0.070016  0.107796  0.000000      1.000000
  0.081685  0.114533  0.000000      1.000000
  0.093354  0.121271  0.000000      1.000000
  0.105023  0.128008  0.000000      1.000000
  0.116693  0.134745  0.000000      1.000000
  0.128362  0.141482  0.000000      1.000000
  0.140031  0.148220  0.000000      1.000000
 -0.140031 -0.013475 -0.000000      1.000000
 -0.128362 -0.006737 -0.000000      1.000000
 -0.116693 -0.000000 -0.000000      1.000000
 -0.105023  0.006737 -0.000000      1.000000
 -0.093354  0.013474 -0.000000      1.000000
 -0.081685  0.020212 -0.000000      1.000000
 -0.070016  0.026949 -0.000000      1.000000
 -0.058346  0.033686 -0.000000      1.000000
 -0.046677  0.040424 -0.000000      1.000000
 -0.035008  0.047161 -0.000000      1.000000
 -0.023339  0.053898 -0.000000      1.000000
 -0.011669  0.060635 -0.000000      1.000000
 -0.000000  0.080847 -0.000000      1.000000
  0.011669  0.087584  0.000000      1.000000
  0.023339  0.094322  0.000000      1.000000
  0.035008  0.101059  0.000000      1.000000
  0.046677  0.107796  0.000000      1.000000
  0.058346  0.114533  0.000000      1.000000
  0.070016  0.121271  0.000000      1.000000
  0.081685  0.128008  0.000000      1.000000
  0.093354  0.134745  0.000000      1.000000
  0.105023  0.141482  0.000000      1.000000
  0.116693  0.148220  0.000000      1.000000
  0.128362  0.154957  0.000000      1.000000
  0.140031  0.161694  0.000000      1.000000
 -0.140031 -0.000000 -0.000000      1.000000
 -0.128362  0.006737 -0.000000      1.000000
 -0.116693  0.013474 -0.000000      1.000000
 -0.105023  0.020212 -0.000000      1.000000
 -0.093354  0.026949 -0.000000      1.000000
 -0.081685  0.033686 -0.000000      1.000000
 -0.070016  0.040424 -0.000000      1.000000
 -0.058346  0.047161 -0.000000      1.000000
 -0.046677  0.053898 -0.000000      1.000000
 -0.035008  0.060635 -0.000000      1.000000
 -0.023339  0.067373 -0.000000      1.000000
 -0.011669  0.074110 -0.000000      1.000000
 -0.000000  0.094322 -0.000000      1.000000
  0.011669  0.101059  0.000000      1.000000
  0.023339  0.107796  0.000000      1.000000
  0.035008  0.114533  0.000000      1.000000
  0.046677  0.121271  0.000000      1.000000
  0.058346  0.128008  0.000000      1.000000
  0.070016  0.134745  0.000000      1.000000
  0.081685  0.141482  0.000000      1.000000
  0.093354  0.148220  0.000000      1.000000
  0.105023  0.154957  0.000000      1.000000
  0.116693  0.161694  0.000000      1.000000
  0.128362  0.168431  0.000000      1.000000
  0.140031  0.175169  0.000000      1.000000
 -0.140031  0.013474 -0.000000      1.000000
 -0.128362  0.020212 -0.000000      1.000000
 -0.116693  0.026949 -0.000000      1.000000
 -0.105023  0.033686 -0.000000      1.000000
 -0.093354  0.040424 -0.000000      1.000000
 -0.081685  0.047161 -0.000000      1.000000
 -0.070016  0.053898 -0.000000      1.000000
 -0.058346  0.060635 -0.000000      1.000000
 -0.046677  0.067373 -0.000000      1.000000
 -0.035008  0.074110 -0.000000      1.000000
 -0.023339  0.080847 -0.000000      1.000000
 -0.011669  0.087584 -0.000000      1.000000
 -0.000000  0.107796 -0.000000      1.000000
  0.011669  0.114533  0.000000      1.000000
  0.023339  0.121271  0.000000      1.000000
  0.035008  0.128008  0.000000      1.000000
  0.046677  0.134745  0.000000      1.000000
  0.058346  0.141482  0.000000      1.000000
  0.070016  0.148220  0.000000      1.000000
  0.081685  0.154957  0.000000      1.000000
  0.093354  0.161694  0.000000      1.000000
  0.105023  0.168431  0.000000      1.000000
  0.116693  0.175169  0.000000      1.000000
  0.128362  0.181906  0.000000      1.000000
  0.140031  0.188643  0.000000      1.000000
 -0.140031  0.026949 -0.000000      1.000000
 -0.128362  0.033686 -0.000000      1.000000
 -0.116693  0.040424 -0.000000      1.000000
 -0.105023  0.047161 -0.000000      1.000000
 -0.093354  0.053898 -0.000000      1.000000
 -0.081685  0.060635 -0.000000      1.000000
 -0.070016  0.067373 -0.000000      1.000000
 -0.058346  0.074110 -0.000000      1.000000
 -0.046677  0.080847 -0.000000      1.000000
 -0.035008  0.087584 -0.000000      1.000000
 -0.023339  0.094322 -0.000000      1.000000
 -0.011669  0.101059 -0.000000      1.000000
 -0.000000  0.121271 -0.000000      1.000000
  0.011669  0.128008  0.000000      1.000000
  0.023339  0.134745  0.000000      1.000000
  0.035008  0.141482  0.000000      1.000000
  0.046677  0.148220  0.000000      1.000000
  0.058346  0.154957  0.000000      1.000000
  0.070016  0.161694  0.000000      1.000000
  0.081685  0.168431  0.000000      1.000000
  0.093354  0.175169  0.000000      1.000000
  0.105023  0.181906  0.000000      1.000000
  0.116693  0.188643  0.000000      1.000000
  0.128362  0.195380  0.000000      1.000000
  0.140031  0.202118  0.000000      1.000000
 -0.140031  0.040424 -0.000000      1.000000
 -0.128362  0.047161 -0.000000      1.000000
 -0.116693  0.053898 -0.000000      1.000000
 -0.105023  0.060635 -0.000000      1.000000
 -0.093354  0.067373 -0.000000      1.000000
 -0.081685  0.074110 -0.000000      1.000000
 -0.070016  0.080847 -0.000000      1.000000
 -0.058346  0.087584 -0.000000      1.000000
 -0.046677  0.094322 -0.000000      1.000000
 -0.035008  0.101059 -0.000000      1.000000
 -0.023339  0.107796 -0.000000      1.000000
 -0.011669  0.114533 -0.000000      1.000000
 -0.000000  0.134745 -0.000000      1.000000
  0.011669  0.141482  0.000000      1.000000
  0.023339  0.148220  0.000000      1.000000
  0.035008  0.154957  0.000000      1.000000
  0.046677  0.161694  0.000000      1.000000
  0.058346  0.168431  0.000000      1.000000
  0.070016  0.175169  0.000000      1.000000
  0.081685  0.181906  0.000000      1.000000
  0.093354  0.188643  0.000000      1.000000
  0.105023  0.195380  0.000000      1.000000
  0.116693  0.202118  0.000000      1.000000
  0.128362  0.208855  0.000000      1.000000
  0.140031  0.215592  0.000000      1.000000
 -0.140031  0.053898 -0.000000      1.000000
 -0.128362  0.060635 -0.000000      1.000000
 -0.116693  0.067373 -0.000000      1.000000
 -0.105023  0.074110 -0.000000      1.000000
 -0.093354  0.080847 -0.000000      1.000000
 -0.081685  0.087584 -0.000000      1.000000
 -0.070016  0.094322 -0.000000      1.000000
 -0.058346  0.101059 -0.000000      1.000000
 -0.046677  0.107796 -0.000000      1.000000
 -0.035008  0.114533 -0.000000      1.000000
 -0.023339  0.121271 -0.000000      1.000000
 -0.011669  0.128008 -0.000000      1.000000
 -0.000000  0.148220 -0.000000      1.000000
  0.011669  0.154957  0.000000      1.000000
  0.023339  0.161694  0.000000      1.000000
  0.035008  0.168431  0.000000      1.000000
  0.046677  0.175169  0.000000      1.000000
  0.058346  0.181906  0.000000      1.000000
  0.070016  0.188643  0.000000      1.000000
  0.081685  0.195380  0.000000      1.000000
  0.093354  0.202118  0.000000      1.000000
  0.105023  0.208855  0.000000      1.000000
  0.116693  0.215592  0.000000      1.000000
  0.128362  0.222329  0.000000      1.000000
  0.140031  0.229067  0.000000      1.000000
 -0.140031  0.067373 -0.000000      1.000000
 -0.128362  0.074110 -0.000000      1.000000
 -0.116693  0.080847 -0.000000      1.000000
 -0.105023  0.087584 -0.000000      1.000000
 -0.093354  0.094322 -0.000000      1.000000
 -0.081685  0.101059 -0.000000      1.000000
 -0.070016  0.107796 -0.000000      1.000000
 -0.058346  0.114533 -0.000000      1.000000
 -0.046677  0.121271 -0.000000      1.000000
 -0.035008  0.128008 -0.000000      1.000000
 -0.023339  0.134745 -0.000000      1.000000
 -0.011669  0.141482 -0.000000      1.000000
 -0.000000  0.161694 -0.000000      1.000000
  0.011669  0.168431  0.000000      1.000000
  0.023339  0.175169  0.000000      1.000000
  0.035008  0.181906  0.000000      1.000000
  0.046677  0.188643  0.000000      1.000000
  0.058346  0.195380  0.000000      1.000000
  0.070016  0.202118  0.000000      1.000000
  0.081685  0.208855  0.000000      1.000000
  0.093354  0.215592  0.000000      1.000000
  0.105023  0.222329  0.000000      1.000000
  0.116693  0.229067  0.000000      1.000000
  0.128362  0.235804  0.000000      1.000000
  0.140031  0.242541  0.000000      1.000000
 -0.140031  0.080847 -0.000000      1.000000
 -0.128362  0.087584 -0.000000      1.000000
 -0.116693  0.094322 -0.000000      1.000000
 -0.105023  0.101059 -0.000000      1.000000
 -0.093354  0.107796 -0.000000      1.000000
 -0.081685  0.114533 -0.000000      1.000000
 -0.070016  0.121271 -0.000000      1.000000
 -0.058346  0.128008 -0.000000      1.000000
 -0.046677  0.134745 -0.000000      1.000000
 -0.035008  0.141482 -0.000000      1.000000
 -0.023339  0.148220 -0.000000      1.000000
 -0.011669  0.154957 -0.000000      1.000000
  0.000000 -0.161694  0.000000      1.000000
  0.011669 -0.154957  0.000000      1.000000
  0.023339 -0.148220  0.000000      1.000000
  0.035008 -0.141482  0.000000      1.000000
  0.046677 -0.134745  0.000000      1.000000
  0.058346 -0.128008  0.000000      1.000000
  0.070016 -0.121271  0.000000      1.000000
  0.081685 -0.114533  0.000000      1.000000
  0.093354 -0.107796  0.000000      1.000000
  0.105023 -0.101059  0.000000      1.000000
  0.116693 -0.094322  0.000000      1.000000
  0.128362 -0.087584  0.000000      1.000000
  0.140031 -0.080847  0.000000      1.000000
 -0.140031 -0.242541 -0.000000      1.000000
 -0.128362 -0.235804 -0.000000      1.000000
 -0.116693 -0.229067 -0.000000      1.000000
 -0.105023 -0.222329 -0.000000      1.000000
 -0.093354 -0.215592 -0.000000      1.000000
 -0.081685 -0.208855 -0.000000      1.000000
 -0.070016 -0.202118 -0.000000      1.000000
 -0.058346 -0.195380 -0.000000      1.000000
 -0.046677 -0.188643 -0.000000      1.000000
 -0.035008 -0.181906 -0.000000      1.000000
 -0.023339 -0.175169 -0.000000      1.000000
 -0.011669 -0.168431 -0.000000      1.000000
  0.000000 -0.148220  0.000000      1.000000
  0.011669 -0.141482  0.000000      1.000000
  0.023339 -0.134745  0.000000      1.000000
  0.035008 -0.128008  0.000000      1.000000
  0.046677 -0.121271  0.000000      1.000000
  0.058346 -0.114533  0.000000      1.000000
  0.070016 -0.107796  0.000000      1.000000
  0.081685 -0.101059  0.000000      1.000000
  0.093354 -0.094322  0.000000      1.000000
  0.105023 -0.087584  0.000000      1.000000
  0.116693 -0.080847  0.000000      1.000000
  0.128362 -0.074110  0.000000      1.000000
  0.140031 -0.067373  0.000000      1.000000
 -0.140031 -0.229067 -0.000000      1.000000
 -0.128362 -0.222329 -0.000000      1.000000
 -0.116693 -0.215592 -0.000000      1.000000
 -0.105023 -0.208855 -0.000000      1.000000
 -0.093354 -0.202118 -0.000000      1.000000
 -0.081685 -0.195380 -0.000000      1.000000
 -0.070016 -0.188643 -0.000000      1.000000
 -0.058346 -0.181906 -0.000000      1.000000
 -0.046677 -0.175169 -0.000000      1.000000
 -0.035008 -0.168431 -0.000000      1.000000
 -0.023339 -0.161694 -0.000000      1.000000
 -0.011669 -0.154957 -0.000000      1.000000
  0.000000 -0.134745  0.000000      1.000000
  0.011669 -0.128008  0.000000      1.000000
  0.023339 -0.121271  0.000000      1.000000
  0.035008 -0.114533  0.000000      1.000000
  0.046677 -0.107796  0.000000      1.000000
  0.058346 -0.101059  0.000000      1.000000
  0.070016 -0.094322  0.000000      1.000000
  0.081685 -0.087584  0.000000      1.000000
  0.093354 -0.080847  0.000000      1.000000
  0.105023 -0.074110  0.000000      1.000000
  0.116693 -0.067373  0.000000      1.000000
  0.128362 -0.060635  0.000000      1.000000
  0.140031 -0.053898  0.000000      1.000000
 -0.140031 -0.215592 -0.000000      1.000000
 -0.128362 -0.208855 -0.000000      1.000000
 -0.116693 -0.202118 -0.000000      1.000000
 -0.105023 -0.195380 -0.000000      1.000000
 -0.093354 -0.188643 -0.000000      1.000000
 -0.081685 -0.181906 -0.000000      1.000000
 -0.070016 -0.175169 -0.000000      1.000000
 -0.058346 -0.168431 -0.000000      1.000000
 -0.046677 -0.161694 -0.000000      1.000000
 -0.035008 -0.154957 -0.000000      1.000000
 -0.023339 -0.148220 -0.000000      1.000000
 -0.011669 -0.141482 -0.000000      1.000000
  0.000000 -0.121271  0.000000      1.000000
  0.011669 -0.114533  0.000000      1.000000
  0.023339 -0.107796  0.000000      1.000000
  0.035008 -0.101059  0.000000      1.000000
  0.046677 -0.094322  0.000000      1.000000
  0.058346 -0.087584  0.000000      1.000000
  0.070016 -0.080847  0.000000      1.000000
  0.081685 -0.074110  0.000000      1.000000
  0.093354 -0.067373  0.000000      1.000000
  0.105023 -0.060635  0.000000      1.000000
  0.116693 -0.053898  0.000000      1.000000
  0.128362 -0.047161  0.000000      1.000000
  0.140031 -0.040424  0.000000      1.000000
 -0.140031 -0.202118 -0.000000      1.000000
 -0.128362 -0.195380 -0.000000      1.000000
 -0.116693 -0.188643 -0.000000      1.000000
 -0.105023 -0.181906 -0.000000      1.000000
 -0.093354 -0.175169 -0.000000      1.000000
 -0.081685 -0.168431 -0.000000      1.000000
 -0.070016 -0.161694 -0.000000      1.000000
 -0.058346 -0.154957 -0.000000      1.000000
 -0.046677 -0.148220 -0.000000      1.000000
 -0.035008 -0.141482 -0.000000      1.000000
 -0.023339 -0.134745 -0.000000      1.000000
 -0.011669 -0.128008 -0.000000      1.000000
  0.000000 -0.107796  0.000000      1.000000
  0.011669 -0.101059  0.000000      1.000000
  0.023339 -0.094322  0.000000      1.000000
  0.035008 -0.087584  0.000000      1.000000
  0.046677 -0.080847  0.000000      1.000000
  0.058346 -0.074110  0.000000      1.000000
  0.070016 -0.067373  0.000000      1.000000
  0.081685 -0.060635  0.000000      1.000000
  0.093354 -0.053898  0.000000      1.000000
  0.105023 -0.047161  0.000000      1.000000
  0.116693 -0.040424  0.000000      1.000000
  0.128362 -0.033686  0.000000      1.000000
  0.140031 -0.026949  0.000000      1.000000
 -0.140031 -0.188643 -0.000000      1.000000
 -0.128362 -0.181906 -0.000000      1.000000
 -0.116693 -0.175169 -0.000000      1.000000
 -0.105023 -0.168431 -0.000000      1.000000
 -0.093354 -0.161694 -0.000000      1.000000
 -0.081685 -0.154957 -0.000000      1.000000
 -0.070016 -0.148220 -0.000000      1.000000
 -0.058346 -0.141482 -0.000000      1.000000
 -0.046677 -0.134745 -0.000000      1.000000
 -0.035008 -0.128008 -0.000000      1.000000
 -0.023339 -0.121271 -0.000000      1.000000
 -0.011669 -0.114533 -0.000000      1.000000
  0.000000 -0.094322  0.000000      1.000000
  0.011669 -0.087584  0.000000      1.000000
  0.023339 -0.080847  0.000000      1.000000
  0.035008 -0.074110  0.000000      1.000000
  0.046677 -0.067373  0.000000      1.000000
  0.058346 -0.060635  0.000000      1.000000
  0.070016 -0.053898  0.000000      1.000000
  0.081685 -0.047161  0.000000      1.000000
  0.093354 -0.040424  0.000000      1.000000
  0.105023 -0.033686  0.000000      1.000000
  0.116693 -0.026949  0.000000      1.000000
  0.128362 -0.020212  0.000000      1.000000
  0.140031 -0.013474  0.000000      1.000000
 -0.140031 -0.175169 -0.000000      1.000000
 -0.128362 -0.168431 -0.000000      1.000000
 -0.116693 -0.161694 -0.000000      1.000000
 -0.105023 -0.154957 -0.000000      1.000000
 -0.093354 -0.148220 -0.000000      1.000000
 -0.081685 -0.141482 -0.000000      1.000000
 -0.070016 -0.134745 -0.000000      1.000000
 -0.058346 -0.128008 -0.000000      1.000000
 -0.046677 -0.121271 -0.000000      1.000000
 -0.035008 -0.114533 -0.000000      1.000000
 -0.023339 -0.107796 -0.000000      1.000000
 -0.011669 -0.101059 -0.000000      1.000000
  0.000000 -0.080847  0.000000      1.000000
  0.011669 -0.074110  0.000000      1.000000
  0.023339 -0.067373  0.000000      1.000000
  0.035008 -0.060635  0.000000      1.000000
  0.046677 -0.053898  0.000000      1.000000
  0.058346 -0.047161  0.000000      1.000000
  0.070016 -0.040424  0.000000      1.000000
  0.081685 -0.033686  0.000000      1.000000
  0.093354 -0.026949  0.000000      1.000000
  0.105023 -0.020212  0.000000      1.000000
  0.116693 -0.013474  0.000000      1.000000
  0.128362 -0.006737  0.000000      1.000000
  0.140031  0.000000  0.000000      1.000000
 -0.140031 -0.161694 -0.000000      1.000000
 -0.128362 -0.154957 -0.000000      1.000000
 -0.116693 -0.148220 -0.000000      1.000000
 -0.105023 -0.141482 -0.000000      1.000000
 -0.093354 -0.134745 -0.000000      1.000000
 -0.081685 -0.128008 -0.000000      1.000000
 -0.070016 -0.121271 -0.000000      1.000000
 -0.058346 -0.114533 -0.000000      1.000000
 -0.046677 -0.107796 -0.000000      1.000000
 -0.035008 -0.101059 -0.000000      1.000000
 -0.023339 -0.094322 -0.000000      1.000000
 -0.011669 -0.087584 -0.000000      1.000000
  0.000000 -0.067373  0.000000      1.000000
  0.011669 -0.060635  0.000000      1.000000
  0.023339 -0.053898  0.000000      1.000000
  0.035008 -0.047161  0.000000      1.000000
  0.046677 -0.040424  0.000000      1.000000
  0.058346 -0.033686  0.000000      1.000000
  0.070016 -0.026949  0.000000      1.000000
  0.081685 -0.020212  0.000000      1.000000
  0.093354 -0.013474  0.000000      1.000000
  0.105023 -0.006737  0.000000      1.000000
  0.116693  0.000000  0.000000      1.000000
  0.128362  0.006737  0.000000      1.000000
  0.140031  0.013475  0.000000      1.000000
 -0.140031 -0.148220 -0.000000      1.000000
 -0.128362 -0.141482 -0.000000      1.000000
 -0.116693 -0.134745 -0.000000      1.000000
 -0.105023 -0.128008 -0.000000      1.000000
 -0.093354 -0.121271 -0.000000      1.000000
 -0.081685 -0.114533 -0.000000      1.000000
 -0.070016 -0.107796 -0.000000      1.000000
 -0.058346 -0.101059 -0.000000      1.000000
 -0.046677 -0.094322 -0.000000      1.000000
 -0.035008 -0.087584 -0.000000      1.000000
 -0.023339 -0.080847 -0.000000      1.000000
 -0.011669 -0.074110 -0.000000      1.000000
  0.000000 -0.053898  0.000000      1.000000
  0.011669 -0.047161  0.000000      1.000000
  0.023339 -0.040424  0.000000      1.000000
  0.035008 -0.033686  0.000000      1.000000
  0.046677 -0.026949  0.000000      1.000000
  0.058346 -0.020212  0.000000      1.000000
  0.070016 -0.013475  0.000000      1.000000
  0.081685 -0.006737  0.000000      1.000000
  0.093354  0.000000  0.000000      1.000000
  0.105023  0.006737  0.000000      1.000000
  0.116693  0.013475  0.000000      1.000000
  0.128362  0.020212  0.000000      1.000000
  0.140031  0.026949  0.000000      1.000000
 -0.140031 -0.134745 -0.000000      1.000000
 -0.128362 -0.128008 -0.000000      1.000000
 -0.116693 -0.121271 -0.000000      1.000000
 -0.105023 -0.114533 -0.000000      1.000000
 -0.093354 -0.107796 -0.000000      1.000000
 -0.081685 -0.101059 -0.000000      1.000000
 -0.070016 -0.094322 -0.000000      1.000000
 -0.058346 -0.087584 -0.000000      1.000000
 -0.046677 -0.080847 -0.000000      1.000000
 -0.035008 -0.074110 -0.000000      1.000000
 -0.023339 -0.067373 -0.000000      1.000000
 -0.011669 -0.060635 -0.000000      1.000000
  0.000000 -0.040424  0.000000      1.000000
  0.011669 -0.033686  0.000000      1.000000
  0.023339 -0.026949  0.000000      1.000000
  0.035008 -0.020212  0.000000      1.000000
  0.046677 -0.013475  0.000000      1.000000
  0.058346 -0.006737  0.000000      1.000000
  0.070016  0.000000  0.000000      1.000000
  0.081685  0.006737  0.000000      1.000000
  0.093354  0.013475  0.000000      1.000000
  0.105023  0.020212  0.000000      1.000000
  0.116693  0.026949  0.000000      1.000000
  0.128362  0.033686  0.000000      1.000000
  0.140031  0.040424  0.000000      1.000000
 -0.140031 -0.121271 -0.000000      1.000000
 -0.128362 -0.114533 -0.000000      1.000000
 -0.116693 -0.107796 -0.000000      1.000000
 -0.105023 -0.101059 -0.000000      1.000000
 -0.093354 -0.094322 -0.000000      1.000000
 -0.081685 -0.087584 -0.000000      1.000000
 -0.070016 -0.080847 -0.000000      1.000000
 -0.058346 -0.074110 -0.000000      1.000000
 -0.046677 -0.067373 -0.000000      1.000000
 -0.035008 -0.060635 -0.000000      1.000000
 -0.023339 -0.053898 -0.000000      1.000000
 -0.011669 -0.047161 -0.000000      1.000000
  0.000000 -0.026949  0.000000      1.000000
  0.011669 -0.020212  0.000000      1.000000
  0.023339 -0.013475  0.000000      1.000000
  0.035008 -0.006737  0.000000      1.000000
  0.046677  0.000000  0.000000      1.000000
  0.058346  0.006737  0.000000      1.000000
  0.070016  0.013475  0.000000      1.000000
  0.081685  0.020212  0.000000      1.000000
  0.093354  0.026949  0.000000      1.000000
  0.105023  0.033686  0.000000      1.000000
  0.116693  0.040424  0.000000      1.000000
  0.128362  0.047161  0.000000      1.000000
  0.140031  0.053898  0.000000      1.000000
 -0.140031 -0.107796 -0.000000      1.000000
 -0.128362 -0.101059 -0.000000      1.000000
 -0.116693 -0.094322 -0.000000      1.000000
 -0.105023 -0.087584 -0.000000      1.000000
 -0.093354 -0.080847 -0.000000      1.000000
 -0.081685 -0.074110 -0.000000      1.000000
 -0.070016 -0.067373 -0.000000      1.000000
 -0.058346 -0.060635 -0.000000      1.000000
 -0.046677 -0.053898 -0.000000      1.000000
 -0.035008 -0.047161 -0.000000      1.000000
 -0.023339 -0.040424 -0.000000      1.000000
 -0.011669 -0.033686 -0.000000      1.000000
  0.000000 -0.013475  0.000000      1.000000
  0.011669 -0.006737  0.000000      1.000000
  0.023339  0.000000  0.000000      1.000000
  0.035008  0.006737  0.000000      1.000000
  0.046677  0.013475  0.000000      1.000000
  0.058346  0.020212  0.000000      1.000000
  0.070016  0.026949  0.000000      1.000000
  0.081685  0.033686  0.000000      1.000000
  0.093354  0.040424  0.000000      1.000000
  0.105023  0.047161  0.000000      1.000000
  0.116693  0.053898  0.000000      1.000000
  0.128362  0.060635  0.000000      1.000000
  0.140031  0.067373  0.000000      1.000000
 -0.140031 -0.094322 -0.000000      1.000000
 -0.128362 -0.087584 -0.000000      1.000000
 -0.116693 -0.080847 -0.000000      1.000000
 -0.105023 -0.074110 -0.000000      1.000000
 -0.093354 -0.067373 -0.000000      1.000000
 -0.081685 -0.060635 -0.000000      1.000000
 -0.070016 -0.053898 -0.000000      1.000000
 -0.058346 -0.047161 -0.000000      1.000000
 -0.046677 -0.040424 -0.000000      1.000000
 -0.035008 -0.033686 -0.000000      1.000000
 -0.023339 -0.026949 -0.000000      1.000000
 -0.011669 -0.020212 -0.000000      1.000000
 
 WARNING: full set of k-points will be restricted to regular points only.

 
 Subroutine IBZKPT_HF returns following result:
 ==============================================
 
 Found    625 k-points in 1st BZ
 the following    625 k-points will be used (e.g. in the exchange kernel)
 Following reciprocal coordinates:   # in IRBZ
  0.000000  0.000000  0.000000    0.00160000   1 t-inv F
  0.040000  0.000000  0.000000    0.00160000   2 t-inv F
  0.080000  0.000000  0.000000    0.00160000   3 t-inv F
  0.120000  0.000000  0.000000    0.00160000   4 t-inv F
  0.160000  0.000000  0.000000    0.00160000   5 t-inv F
  0.200000  0.000000  0.000000    0.00160000   6 t-inv F
  0.240000 -0.000000  0.000000    0.00160000   7 t-inv F
  0.280000  0.000000  0.000000    0.00160000   8 t-inv F
  0.320000  0.000000  0.000000    0.00160000   9 t-inv F
  0.360000  0.000000  0.000000    0.00160000  10 t-inv F
[...]
 k-point 348 :  -0.1200-0.4800-0.0000  plane waves:    8646
 k-point 349 :  -0.0800-0.4800 0.0000  plane waves:    8626
 k-point 350 :  -0.0400-0.4800-0.0000  plane waves:    8640
 k-point 351 :  -0.0000-0.4400-0.0000  plane waves:    8644
 k-point 352 :   0.0400-0.4400-0.0000  plane waves:    8614
 k-point 353 :   0.0800-0.4400-0.0000  plane waves:    8604
 k-point 354 :   0.1200-0.4400 0.0000  plane waves:    8630
 k-point 355 :   0.1600-0.4400-0.0000  plane waves:    8654
 k-point 356 :   0.2000-0.4400 0.0000  plane waves:    8674
 k-point 357 :   0.2400-0.4400 0.0000  plane waves:    8674
 k-point 358 :   0.2800-0.4400 0.0000  plane waves:    8654
 k-point 359 :   0.3200-0.4400 0.0000  plane waves:    8630
 k-point 360 :   0.3600-0.4400 0.0000  plane waves:    8604
 k-point 361 :   0.4000-0.4400 0.0000  plane waves:    8614
 k-point 362 :   0.4400-0.4400 0.0000  plane waves:    8644
 k-point 363 :   0.4800-0.4400 0.0000  plane waves:    8628
 k-point 364 :  -0.4800-0.4400 0.0000  plane waves:    8626
 k-point 365 :  -0.4400-0.4400 0.0000  plane waves:    8670
 k-point 366 :  -0.4000-0.4400-0.0000  plane waves:    8650
 k-point 367 :  -0.3600-0.4400-0.0000  plane waves:    8656
 k-point 368 :  -0.3200-0.4400-0.0000  plane waves:    8650
 k-point 369 :  -0.2800-0.4400-0.0000  plane waves:    8638
 k-point 370 :  -0.2400-0.4400-0.0000  plane waves:    8650
 k-point 371 :  -0.2000-0.4400-0.0000  plane waves:    8656
 k-point 372 :  -0.1600-0.4400-0.0000  plane waves:    8650
 k-point 373 :  -0.1200-0.4400-0.0000  plane waves:    8670
 k-point 374 :  -0.0800-0.4400-0.0000  plane waves:    8626
 k-point 375 :  -0.0400-0.4400-0.0000  plane waves:    8628
 k-point 376 :   0.0000-0.4000 0.0000  plane waves:    8624
 k-point 377 :   0.0400-0.4000-0.0000  plane waves:    8636
 k-point 378 :   0.0800-0.4000-0.0000  plane waves:    8604
 k-point 379 :   0.1200-0.4000 0.0000  plane waves:    8626
 k-point 380 :   0.1600-0.4000 0.0000  plane waves:    8646
 k-point 381 :   0.2000-0.4000 0.0000  plane waves:    8638
 k-point 382 :   0.2400-0.4000 0.0000  plane waves:    8646
 k-point 383 :   0.2800-0.4000 0.0000  plane waves:    8626
 k-point 384 :   0.3200-0.4000 0.0000  plane waves:    8604
 k-point 385 :   0.3600-0.4000 0.0000  plane waves:    8636
 k-point 386 :   0.4000-0.4000 0.0000  plane waves:    8624
 k-point 387 :   0.4400-0.4000 0.0000  plane waves:    8614
 k-point 388 :   0.4800-0.4000 0.0000  plane waves:    8610
 k-point 389 :  -0.4800-0.4000 0.0000  plane waves:    8646
 k-point 390 :  -0.4400-0.4000 0.0000  plane waves:    8650
 k-point 391 :  -0.4000-0.4000 0.0000  plane waves:    8650
 k-point 392 :  -0.3600-0.4000-0.0000  plane waves:    8658
 k-point 393 :  -0.3200-0.4000-0.0000  plane waves:    8658
 k-point 394 :  -0.2800-0.4000-0.0000  plane waves:    8658
 k-point 395 :  -0.2400-0.4000 0.0000  plane waves:    8658
 k-point 396 :  -0.2000-0.4000-0.0000  plane waves:    8650
 k-point 397 :  -0.1600-0.4000 0.0000  plane waves:    8650
 k-point 398 :  -0.1200-0.4000 0.0000  plane waves:    8646
 k-point 399 :  -0.0800-0.4000-0.0000  plane waves:    8610
 k-point 400 :  -0.0400-0.4000-0.0000  plane waves:    8614
 k-point 401 :   0.0000-0.3600-0.0000  plane waves:    8622
 k-point 402 :   0.0400-0.3600 0.0000  plane waves:    8620
 k-point 403 :   0.0800-0.3600-0.0000  plane waves:    8628
 k-point 404 :   0.1200-0.3600 0.0000  plane waves:    8630
 k-point 405 :   0.1600-0.3600 0.0000  plane waves:    8634
 k-point 406 :   0.2000-0.3600 0.0000  plane waves:    8634
 k-point 407 :   0.2400-0.3600-0.0000  plane waves:    8630
 k-point 408 :   0.2800-0.3600 0.0000  plane waves:    8628
 k-point 409 :   0.3200-0.3600 0.0000  plane waves:    8620
 k-point 410 :   0.3600-0.3600-0.0000  plane waves:    8622
 k-point 411 :   0.4000-0.3600-0.0000  plane waves:    8636
 k-point 412 :   0.4400-0.3600 0.0000  plane waves:    8604
 k-point 413 :   0.4800-0.3600-0.0000  plane waves:    8644
 k-point 414 :  -0.4800-0.3600 0.0000  plane waves:    8632
 k-point 415 :  -0.4400-0.3600-0.0000  plane waves:    8656
 k-point 416 :  -0.4000-0.3600-0.0000  plane waves:    8658
 k-point 417 :  -0.3600-0.3600-0.0000  plane waves:    8666
 k-point 418 :  -0.3200-0.3600-0.0000  plane waves:    8658
 k-point 419 :  -0.2800-0.3600 0.0000  plane waves:    8666
 k-point 420 :  -0.2400-0.3600-0.0000  plane waves:    8658
 k-point 421 :  -0.2000-0.3600-0.0000  plane waves:    8656
 k-point 422 :  -0.1600-0.3600 0.0000  plane waves:    8632
 k-point 423 :  -0.1200-0.3600-0.0000  plane waves:    8644
 k-point 424 :  -0.0800-0.3600-0.0000  plane waves:    8604
 k-point 425 :  -0.0400-0.3600-0.0000  plane waves:    8636
 k-point 426 :  -0.0000-0.3200-0.0000  plane waves:    8618
 k-point 427 :   0.0400-0.3200 0.0000  plane waves:    8606
 k-point 428 :   0.0800-0.3200 0.0000  plane waves:    8592
 k-point 429 :   0.1200-0.3200 0.0000  plane waves:    8584
 k-point 430 :   0.1600-0.3200 0.0000  plane waves:    8610
 k-point 431 :   0.2000-0.3200 0.0000  plane waves:    8584
 k-point 432 :   0.2400-0.3200-0.0000  plane waves:    8592
 k-point 433 :   0.2800-0.3200 0.0000  plane waves:    8606
 k-point 434 :   0.3200-0.3200 0.0000  plane waves:    8618
 k-point 435 :   0.3600-0.3200 0.0000  plane waves:    8620
 k-point 436 :   0.4000-0.3200-0.0000  plane waves:    8604
 k-point 437 :   0.4400-0.3200 0.0000  plane waves:    8630
 k-point 438 :   0.4800-0.3200 0.0000  plane waves:    8644
 k-point 439 :  -0.4800-0.3200-0.0000  plane waves:    8644
 k-point 440 :  -0.4400-0.3200-0.0000  plane waves:    8650
 k-point 441 :  -0.4000-0.3200 0.0000  plane waves:    8658
 k-point 442 :  -0.3600-0.3200-0.0000  plane waves:    8658
 k-point 443 :  -0.3200-0.3200-0.0000  plane waves:    8658
 k-point 444 :  -0.2800-0.3200-0.0000  plane waves:    8658
 k-point 445 :  -0.2400-0.3200 0.0000  plane waves:    8650
 k-point 446 :  -0.2000-0.3200-0.0000  plane waves:    8644
 k-point 447 :  -0.1600-0.3200-0.0000  plane waves:    8644
 k-point 448 :  -0.1200-0.3200-0.0000  plane waves:    8630
 k-point 449 :  -0.0800-0.3200-0.0000  plane waves:    8604
 k-point 450 :  -0.0400-0.3200 0.0000  plane waves:    8620
 k-point 451 :   0.0000-0.2800 0.0000  plane waves:    8574
 k-point 452 :   0.0400-0.2800 0.0000  plane waves:    8578
 k-point 453 :   0.0800-0.2800 0.0000  plane waves:    8576
 k-point 454 :   0.1200-0.2800 0.0000  plane waves:    8568
 k-point 455 :   0.1600-0.2800 0.0000  plane waves:    8568
 k-point 456 :   0.2000-0.2800 0.0000  plane waves:    8576
 k-point 457 :   0.2400-0.2800 0.0000  plane waves:    8578
 k-point 458 :   0.2800-0.2800 0.0000  plane waves:    8574
 k-point 459 :   0.3200-0.2800 0.0000  plane waves:    8606
 k-point 460 :   0.3600-0.2800 0.0000  plane waves:    8628
 k-point 461 :   0.4000-0.2800-0.0000  plane waves:    8626
 k-point 462 :   0.4400-0.2800 0.0000  plane waves:    8654
 k-point 463 :   0.4800-0.2800 0.0000  plane waves:    8654
 k-point 464 :  -0.4800-0.2800 0.0000  plane waves:    8640
 k-point 465 :  -0.4400-0.2800 0.0000  plane waves:    8638
 k-point 466 :  -0.4000-0.2800 0.0000  plane waves:    8658
 k-point 467 :  -0.3600-0.2800 0.0000  plane waves:    8666
 k-point 468 :  -0.3200-0.2800-0.0000  plane waves:    8658
 k-point 469 :  -0.2800-0.2800-0.0000  plane waves:    8638
 k-point 470 :  -0.2400-0.2800 0.0000  plane waves:    8640
 k-point 471 :  -0.2000-0.2800-0.0000  plane waves:    8654
 k-point 472 :  -0.1600-0.2800-0.0000  plane waves:    8654
 k-point 473 :  -0.1200-0.2800-0.0000  plane waves:    8626
 k-point 474 :  -0.0800-0.2800-0.0000  plane waves:    8628
 k-point 475 :  -0.0400-0.2800 0.0000  plane waves:    8606
 k-point 476 :   0.0000-0.2400-0.0000  plane waves:    8574
 k-point 477 :   0.0400-0.2400 0.0000  plane waves:    8552
 k-point 478 :   0.0800-0.2400 0.0000  plane waves:    8512
 k-point 479 :   0.1200-0.2400 0.0000  plane waves:    8522
 k-point 480 :   0.1600-0.2400 0.0000  plane waves:    8512
 k-point 481 :   0.2000-0.2400 0.0000  plane waves:    8552
 k-point 482 :   0.2400-0.2400 0.0000  plane waves:    8574
 k-point 483 :   0.2800-0.2400 0.0000  plane waves:    8578
 k-point 484 :   0.3200-0.2400 0.0000  plane waves:    8592
 k-point 485 :   0.3600-0.2400 0.0000  plane waves:    8630
 k-point 486 :   0.4000-0.2400 0.0000  plane waves:    8646
 k-point 487 :   0.4400-0.2400 0.0000  plane waves:    8674
 k-point 488 :   0.4800-0.2400 0.0000  plane waves:    8654
 k-point 489 :  -0.4800-0.2400 0.0000  plane waves:    8640
 k-point 490 :  -0.4400-0.2400 0.0000  plane waves:    8650
 k-point 491 :  -0.4000-0.2400 0.0000  plane waves:    8658
 k-point 492 :  -0.3600-0.2400 0.0000  plane waves:    8658
 k-point 493 :  -0.3200-0.2400-0.0000  plane waves:    8650
 k-point 494 :  -0.2800-0.2400 0.0000  plane waves:    8640
 k-point 495 :  -0.2400-0.2400 0.0000  plane waves:    8654
 k-point 496 :  -0.2000-0.2400 0.0000  plane waves:    8674
 k-point 497 :  -0.1600-0.2400-0.0000  plane waves:    8646
 k-point 498 :  -0.1200-0.2400-0.0000  plane waves:    8630
 k-point 499 :  -0.0800-0.2400-0.0000  plane waves:    8592
 k-point 500 :  -0.0400-0.2400 0.0000  plane waves:    8578
 k-point 501 :   0.0000-0.2000 0.0000  plane waves:    8566
 k-point 502 :   0.0400-0.2000-0.0000  plane waves:    8496
 k-point 503 :   0.0800-0.2000 0.0000  plane waves:    8490
 k-point 504 :   0.1200-0.2000 0.0000  plane waves:    8490
 k-point 505 :   0.1600-0.2000 0.0000  plane waves:    8496
 k-point 506 :   0.2000-0.2000-0.0000  plane waves:    8566
 k-point 507 :   0.2400-0.2000-0.0000  plane waves:    8552
 k-point 508 :   0.2800-0.2000 0.0000  plane waves:    8576
 k-point 509 :   0.3200-0.2000 0.0000  plane waves:    8584
 k-point 510 :   0.3600-0.2000 0.0000  plane waves:    8634
 k-point 511 :   0.4000-0.2000 0.0000  plane waves:    8638
 k-point 512 :   0.4400-0.2000 0.0000  plane waves:    8674
 k-point 513 :   0.4800-0.2000 0.0000  plane waves:    8654
 k-point 514 :  -0.4800-0.2000 0.0000  plane waves:    8644
 k-point 515 :  -0.4400-0.2000 0.0000  plane waves:    8656
 k-point 516 :  -0.4000-0.2000 0.0000  plane waves:    8650
 k-point 517 :  -0.3600-0.2000-0.0000  plane waves:    8656
 k-point 518 :  -0.3200-0.2000-0.0000  plane waves:    8644
 k-point 519 :  -0.2800-0.2000-0.0000  plane waves:    8654
 k-point 520 :  -0.2400-0.2000 0.0000  plane waves:    8674
 k-point 521 :  -0.2000-0.2000-0.0000  plane waves:    8638
 k-point 522 :  -0.1600-0.2000-0.0000  plane waves:    8634
 k-point 523 :  -0.1200-0.2000-0.0000  plane waves:    8584
 k-point 524 :  -0.0800-0.2000 0.0000  plane waves:    8576
 k-point 525 :  -0.0400-0.2000-0.0000  plane waves:    8552
 k-point 526 :   0.0000-0.1600-0.0000  plane waves:    8494
 k-point 527 :   0.0400-0.1600 0.0000  plane waves:    8504
 k-point 528 :   0.0800-0.1600 0.0000  plane waves:    8478
 k-point 529 :   0.1200-0.1600 0.0000  plane waves:    8504
 k-point 530 :   0.1600-0.1600 0.0000  plane waves:    8494
 k-point 531 :   0.2000-0.1600 0.0000  plane waves:    8496
 k-point 532 :   0.2400-0.1600 0.0000  plane waves:    8512
 k-point 533 :   0.2800-0.1600 0.0000  plane waves:    8568
 k-point 534 :   0.3200-0.1600 0.0000  plane waves:    8610
 k-point 535 :   0.3600-0.1600 0.0000  plane waves:    8634
 k-point 536 :   0.4000-0.1600 0.0000  plane waves:    8646
 k-point 537 :   0.4400-0.1600 0.0000  plane waves:    8654
 k-point 538 :   0.4800-0.1600-0.0000  plane waves:    8644
 k-point 539 :  -0.4800-0.1600 0.0000  plane waves:    8632
 k-point 540 :  -0.4400-0.1600 0.0000  plane waves:    8650
 k-point 541 :  -0.4000-0.1600 0.0000  plane waves:    8650
 k-point 542 :  -0.3600-0.1600-0.0000  plane waves:    8632
 k-point 543 :  -0.3200-0.1600 0.0000  plane waves:    8644
 k-point 544 :  -0.2800-0.1600 0.0000  plane waves:    8654
 k-point 545 :  -0.2400-0.1600 0.0000  plane waves:    8646
 k-point 546 :  -0.2000-0.1600-0.0000  plane waves:    8634
 k-point 547 :  -0.1600-0.1600-0.0000  plane waves:    8610
 k-point 548 :  -0.1200-0.1600-0.0000  plane waves:    8568
 k-point 549 :  -0.0800-0.1600-0.0000  plane waves:    8512
 k-point 550 :  -0.0400-0.1600 0.0000  plane waves:    8496
 k-point 551 :   0.0000-0.1200-0.0000  plane waves:    8490
 k-point 552 :   0.0400-0.1200 0.0000  plane waves:    8460
 k-point 553 :   0.0800-0.1200 0.0000  plane waves:    8460
 k-point 554 :   0.1200-0.1200 0.0000  plane waves:    8490
 k-point 555 :   0.1600-0.1200 0.0000  plane waves:    8504
 k-point 556 :   0.2000-0.1200 0.0000  plane waves:    8490
 k-point 557 :   0.2400-0.1200 0.0000  plane waves:    8522
 k-point 558 :   0.2800-0.1200 0.0000  plane waves:    8568
 k-point 559 :   0.3200-0.1200 0.0000  plane waves:    8584
 k-point 560 :   0.3600-0.1200 0.0000  plane waves:    8630
 k-point 561 :   0.4000-0.1200 0.0000  plane waves:    8626
 k-point 562 :   0.4400-0.1200 0.0000  plane waves:    8630
 k-point 563 :   0.4800-0.1200 0.0000  plane waves:    8644
 k-point 564 :  -0.4800-0.1200 0.0000  plane waves:    8646
 k-point 565 :  -0.4400-0.1200 0.0000  plane waves:    8670
 k-point 566 :  -0.4000-0.1200-0.0000  plane waves:    8646
 k-point 567 :  -0.3600-0.1200 0.0000  plane waves:    8644
 k-point 568 :  -0.3200-0.1200-0.0000  plane waves:    8630
 k-point 569 :  -0.2800-0.1200 0.0000  plane waves:    8626
 k-point 570 :  -0.2400-0.1200-0.0000  plane waves:    8630
 k-point 571 :  -0.2000-0.1200 0.0000  plane waves:    8584
 k-point 572 :  -0.1600-0.1200 0.0000  plane waves:    8568
 k-point 573 :  -0.1200-0.1200-0.0000  plane waves:    8522
 k-point 574 :  -0.0800-0.1200 0.0000  plane waves:    8490
 k-point 575 :  -0.0400-0.1200-0.0000  plane waves:    8504
 k-point 576 :   0.0000-0.0800-0.0000  plane waves:    8490
 k-point 577 :   0.0400-0.0800 0.0000  plane waves:    8478
 k-point 578 :   0.0800-0.0800 0.0000  plane waves:    8490
 k-point 579 :   0.1200-0.0800 0.0000  plane waves:    8460
 k-point 580 :   0.1600-0.0800 0.0000  plane waves:    8478
 k-point 581 :   0.2000-0.0800 0.0000  plane waves:    8490
 k-point 582 :   0.2400-0.0800 0.0000  plane waves:    8512
 k-point 583 :   0.2800-0.0800 0.0000  plane waves:    8576
 k-point 584 :   0.3200-0.0800 0.0000  plane waves:    8592
 k-point 585 :   0.3600-0.0800 0.0000  plane waves:    8628
 k-point 586 :   0.4000-0.0800 0.0000  plane waves:    8604
 k-point 587 :   0.4400-0.0800 0.0000  plane waves:    8604
 k-point 588 :   0.4800-0.0800 0.0000  plane waves:    8610
 k-point 589 :  -0.4800-0.0800-0.0000  plane waves:    8626
 k-point 590 :  -0.4400-0.0800-0.0000  plane waves:    8626
 k-point 591 :  -0.4000-0.0800 0.0000  plane waves:    8610
 k-point 592 :  -0.3600-0.0800-0.0000  plane waves:    8604
 k-point 593 :  -0.3200-0.0800-0.0000  plane waves:    8604
 k-point 594 :  -0.2800-0.0800 0.0000  plane waves:    8628
 k-point 595 :  -0.2400-0.0800 0.0000  plane waves:    8592
 k-point 596 :  -0.2000-0.0800-0.0000  plane waves:    8576
 k-point 597 :  -0.1600-0.0800 0.0000  plane waves:    8512
 k-point 598 :  -0.1200-0.0800-0.0000  plane waves:    8490
 k-point 599 :  -0.0800-0.0800-0.0000  plane waves:    8478
 k-point 600 :  -0.0400-0.0800-0.0000  plane waves:    8460
 k-point 601 :   0.0000-0.0400-0.0000  plane waves:    8482
 k-point 602 :   0.0400-0.0400 0.0000  plane waves:    8482
 k-point 603 :   0.0800-0.0400 0.0000  plane waves:    8478
 k-point 604 :   0.1200-0.0400 0.0000  plane waves:    8460
 k-point 605 :   0.1600-0.0400 0.0000  plane waves:    8504
 k-point 606 :   0.2000-0.0400 0.0000  plane waves:    8496
 k-point 607 :   0.2400-0.0400-0.0000  plane waves:    8552
 k-point 608 :   0.2800-0.0400 0.0000  plane waves:    8578
 k-point 609 :   0.3200-0.0400 0.0000  plane waves:    8606
 k-point 610 :   0.3600-0.0400 0.0000  plane waves:    8620
 k-point 611 :   0.4000-0.0400-0.0000  plane waves:    8636
 k-point 612 :   0.4400-0.0400 0.0000  plane waves:    8614
 k-point 613 :   0.4800-0.0400 0.0000  plane waves:    8628
 k-point 614 :  -0.4800-0.0400 0.0000  plane waves:    8640
 k-point 615 :  -0.4400-0.0400 0.0000  plane waves:    8628
 k-point 616 :  -0.4000-0.0400-0.0000  plane waves:    8614
 k-point 617 :  -0.3600-0.0400 0.0000  plane waves:    8636
 k-point 618 :  -0.3200-0.0400-0.0000  plane waves:    8620
 k-point 619 :  -0.2800-0.0400-0.0000  plane waves:    8606
 k-point 620 :  -0.2400-0.0400 0.0000  plane waves:    8578
 k-point 621 :  -0.2000-0.0400 0.0000  plane waves:    8552
 k-point 622 :  -0.1600-0.0400 0.0000  plane waves:    8496
 k-point 623 :  -0.1200-0.0400 0.0000  plane waves:    8504
 k-point 624 :  -0.0800-0.0400 0.0000  plane waves:    8460
 k-point 625 :  -0.0400-0.0400-0.0000  plane waves:    8478

 maximum and minimum number of plane-waves per node :      8674     8460

 maximum number of plane-waves:      8674
 maximum index in each direction: 
   IXMAX=    5   IYMAX=    5   IZMAX=   46
   IXMIN=   -5   IYMIN=   -5   IZMIN=  -46


 serial   3D FFT for wavefunctions
 parallel 3D FFT for charge:
    minimum data exchange during FFTs selected (reduces bandwidth)


 total amount of memory used by VASP MPI-rank0  1309108. kBytes
=======================================================================

   base      :      30000. kBytes
   nonl-proj :    1175248. kBytes
   fftplans  :       1592. kBytes
   grid      :      13762. kBytes
   one-center:        186. kBytes
   wavefun   :      88320. kBytes
 
     INWAV:  cpu time   20.3171: real time   20.3235
 Broyden mixing: mesh for mixing (old mesh)
   NGX = 11   NGY = 11   NGZ = 93
  (NGX  = 40   NGY  = 40   NGZ  =384)
  gives a total of  11253 points

 charge density for first step will be calculated from the start-wavefunctions


--------------------------------------------------------------------------------------------------------


 Maximum index for augmentation-charges          455 (set IRDMAX)


--------------------------------------------------------------------------------------------------------


 initial charge from wavefunction
 First call to EWALD:  gamma=   0.260
 Maximum number of real-space cells 6x 6x 1
 Maximum number of reciprocal cells 2x 2x11

    FEWALD:  cpu time    0.0024: real time    0.0029


----------------------------------------- Iteration    1(   0)  ---------------------------------------


 Computing MMN



 total charge

# of ion       s       p       d       tot
------------------------------------------
    1        0.290   6.254   4.090  10.634
    2        1.353   2.369   0.000   3.721
    3        1.407   1.908   0.038   3.353
--------------------------------------------------
tot          3.050  10.531   4.129  17.709



 magnetization (x)

# of ion       s       p       d       tot
------------------------------------------
    1        0.000   0.000   0.000   0.000
    2       -0.000  -0.000   0.000  -0.000
    3        0.000  -0.000   0.000  -0.000
--------------------------------------------------
tot          0.000  -0.000   0.000   0.000



 magnetization (y)

# of ion       s       p       d       tot
------------------------------------------
    1        0.000   0.000  -0.000  -0.000
    2        0.000   0.000   0.000   0.000
    3       -0.000   0.000  -0.000   0.000
--------------------------------------------------
tot          0.000   0.000  -0.000  -0.000



 magnetization (z)

# of ion       s       p       d       tot
------------------------------------------
    1        0.040   0.026   3.067   3.133
    2       -0.008  -0.197   0.000  -0.205
    3       -0.002  -0.126   0.001  -0.127
--------------------------------------------------
tot          0.030  -0.297   3.068   2.801
 
    CHARGE:  cpu time    3.1279: real time    3.1456
    FORLOC:  cpu time    0.0021: real time    0.0021
    FORNL :  cpu time    2.0767: real time    2.0784
    STRESS:  cpu time   25.0905: real time   25.1105
    FORCOR:  cpu time    0.0935: real time    0.0937
    FORHAR:  cpu time    0.0093: real time    0.0093
    MIXING:  cpu time    0.0012: real time    0.0013
