<?xml version="1.0" encoding="ISO-8859-1"?>
<modeling>
 <generator>
  <i name="program" type="string">vasp </i>
  <i name="version" type="string">6.2.1  </i>
  <i name="subversion" type="string">16May21 (build May 20 2021 13:04:43) complex                          parallel </i>
  <i name="platform" type="string">LinuxIFC </i>
  <i name="date" type="string">2023 12 25 </i>
  <i name="time" type="string">18:27:57 </i>
 </generator>
 <incar>
  <i type="string" name="PREC">Accurate</i>
  <i type="string" name="ALGO">2</i>
  <i type="logical" name="LSORBIT"> T  </i>
  <v name="SAXIS">      0.00000000      0.00000000      1.00000000</v>
  <i type="int" name="ISPIN">     2</i>
  <i name="AMIX">      0.20000000</i>
  <i name="BMIX">      0.00001000</i>
  <i name="AMIX_MAG">      0.80000000</i>
  <i name="BMIX_MAG">      0.00001000</i>
  <i type="int" name="NELM">     0</i>
  <i type="int" name="NELMDL">    -7</i>
  <i type="int" name="NELMIN">     6</i>
  <i type="int" name="IBRION">    -1</i>
  <i name="EDIFF">      0.00000010</i>
  <i name="EDIFFG">     -0.00100000</i>
  <i type="int" name="NSW">     0</i>
  <i type="int" name="ISIF">     3</i>
  <i type="int" name="ISYM">    -1</i>
  <i name="ENCUT">    330.00000000</i>
  <i type="int" name="NBANDS">    64</i>
  <i type="int" name="NEDOS">  2001</i>
  <v name="MAGMOM">      0.00000000      0.00000000      5.00000000      0.00000000      0.00000000     -0.60000000      0.00000000      0.00000000     -0.60000000</v>
  <i type="logical" name="LREAL"> F  </i>
  <i type="int" name="ISMEAR">    -5</i>
  <i name="SIGMA">      0.05000000</i>
  <i type="int" name="LMAXMIX">     4</i>
  <i type="logical" name="LWAVE"> F  </i>
  <i type="logical" name="LVHAR"> T  </i>
  <i type="int" name="LORBIT">    12</i>
  <i type="logical" name="LASPH"> T  </i>
  <i type="int" name="VOSKOWN">     1</i>
  <i type="logical" name="LDAU"> T  </i>
  <i type="int" name="LDAUTYPE">     2</i>
  <v type="int" name="LDAUL">     2    -1    -1</v>
  <v name="LDAUU">      3.00000000      0.00000000      0.00000000</v>
  <v name="LDAUJ">      0.00000000      0.00000000      0.00000000</v>
  <i type="int" name="LDAUPRINT">     2</i>
  <i type="logical" name="LDIPOL"> T  </i>
  <i type="int" name="IDIPOL">     3</i>
  <i name="EFIELD">      0.00000000</i>
  <i type="logical" name="LWANNIER90"> T  </i>
  <i type="string" name="WANNIER90_WIN">"
Begin Projections
Cr:d
S:p
Te:p
End Projections

# for TB2J package; write the postitions of WF
write_xyz = true

# for TB2J package; write the WF Hamiltonian (Note for W90 version<2.1, it is hr_plot)
write_hr = true
write_u_matrices = true
write_rmn = true
write_bvec = true

dis_num_iter = 200
num_iter     = 100

exclude_bands = 1-10, 37-64

dis_win_min=-8.714143 # 0 # -6eV
dis_win_max=3.678299 # 0  # 4.8eV
dis_froz_min=-8.713943 # 0 #-6eV
dis_froz_max=0.677504 # 0 # 3.8eV

fermi_energy=-3.02309656 #

bands_plot = .true.

# VISUALIZE BANDS
wannier_plot = false
wannier_plot_list = 1 2 3 4   # PLOT THESE SELECTED WFs
wannier_plot_supercell = 1 # do not save larger than 3 (otherwise memory and performance issues?) 


# PLOT WITH SPIN-TEXTURES
spin_decomp = true
spin_axis_azimuth = 0 #90 #0 #0 # deg
spin_axis_polar = 0 #90 #90 #90 # deg
iprint = 3
kpath = true
kpath_task = bands
kpath_bands_colour = spin


Begin Kpoint_Path
K 0.333333 0.333333 0.000000    G 0.000000 0.000000 0.000000
G 0.000000 0.000000 0.000000    M 0.500000 0.000000 0.000000
M 0.500000 0.000000 0.000000    K 0.333333 0.333333 0.000000
End Kpoint_Path
"</i>
  <i type="int" name="NUM_WANN">    22</i>
  <i type="int" name="IVDW">    12</i>
 </incar>
 <primitive_cell>
  <structure name="primitive_cell" >
   <crystal>
    <varray name="basis" >
     <v>       3.42780812       0.00000022       0.00000000 </v>
     <v>      -1.71390429       2.96856882       0.00000000 </v>
     <v>      -0.00000000       0.00000000      31.06688874 </v>
    </varray>
    <i name="volume">    316.12686421 </i>
    <varray name="rec_basis" >
     <v>       0.29173160       0.16843135       0.00000000 </v>
     <v>      -0.00000002       0.33686265      -0.00000000 </v>
     <v>       0.00000000       0.00000000       0.03218861 </v>
    </varray>
   </crystal>
   <varray name="positions" >
    <v>       0.00000000       0.00000000       0.10923557 </v>
    <v>       0.66666700       0.33333300       0.06910715 </v>
    <v>       0.33333417       0.66666700       0.17479203 </v>
   </varray>
  </structure>
  <varray name="primitive_index" >
   <v type="int" >        1 </v>
   <v type="int" >        2 </v>
   <v type="int" >        3 </v>
  </varray>
 </primitive_cell>
 <kpoints>
  <generation param="Gamma">
   <v type="int" name="divisions">      25       25        1 </v>
   <v name="usershift">      0.00000000       0.00000000       0.00000000 </v>
   <v name="genvec1">      0.04000000       0.00000000      -0.00000000 </v>
   <v name="genvec2">      0.00000000       0.04000000       0.00000000 </v>
   <v name="genvec3">      0.00000000       0.00000000       1.00000000 </v>
   <v name="shift">      0.00000000       0.00000000       0.00000000 </v>
  </generation>
  <varray name="kpointlist" >
   <v>       0.00000000       0.00000000       0.00000000 </v>
   <v>       0.04000000       0.00000000       0.00000000 </v>
   <v>       0.08000000       0.00000000       0.00000000 </v>
   <v>       0.12000000       0.00000000       0.00000000 </v>
   <v>       0.16000000       0.00000000       0.00000000 </v>
   <v>       0.20000000       0.00000000       0.00000000 </v>
   <v>       0.24000000      -0.00000000       0.00000000 </v>
   <v>       0.28000000       0.00000000       0.00000000 </v>
   <v>       0.32000000       0.00000000       0.00000000 </v>
   <v>       0.36000000       0.00000000       0.00000000 </v>
   <v>       0.40000000       0.00000000      -0.00000000 </v>
   <v>       0.44000000       0.00000000       0.00000000 </v>
   <v>       0.48000000       0.00000000      -0.00000000 </v>
   <v>      -0.48000000       0.00000000       0.00000000 </v>
   <v>      -0.44000000       0.00000000       0.00000000 </v>
   <v>      -0.40000000       0.00000000       0.00000000 </v>
   <v>      -0.36000000       0.00000000      -0.00000000 </v>
   <v>      -0.32000000      -0.00000000      -0.00000000 </v>
   <v>      -0.28000000      -0.00000000      -0.00000000 </v>
   <v>      -0.24000000       0.00000000       0.00000000 </v>
   <v>      -0.20000000       0.00000000      -0.00000000 </v>
   <v>      -0.16000000       0.00000000      -0.00000000 </v>
   <v>      -0.12000000      -0.00000000      -0.00000000 </v>
   <v>      -0.08000000       0.00000000      -0.00000000 </v>
   <v>      -0.04000000       0.00000000      -0.00000000 </v>
   <v>      -0.00000000       0.04000000       0.00000000 </v>
   <v>       0.04000000       0.04000000       0.00000000 </v>
   <v>       0.08000000       0.04000000       0.00000000 </v>
   <v>       0.12000000       0.04000000       0.00000000 </v>
   <v>       0.16000000       0.04000000      -0.00000000 </v>
   <v>       0.20000000       0.04000000       0.00000000 </v>
   <v>       0.24000000       0.04000000       0.00000000 </v>
   <v>       0.28000000       0.04000000       0.00000000 </v>
   <v>       0.32000000       0.04000000       0.00000000 </v>
   <v>       0.36000000       0.04000000       0.00000000 </v>
   <v>       0.40000000       0.04000000       0.00000000 </v>
   <v>       0.44000000       0.04000000       0.00000000 </v>
   <v>       0.48000000       0.04000000      -0.00000000 </v>
   <v>      -0.48000000       0.04000000       0.00000000 </v>
   <v>      -0.44000000       0.04000000      -0.00000000 </v>
   <v>      -0.40000000       0.04000000       0.00000000 </v>
   <v>      -0.36000000       0.04000000      -0.00000000 </v>
   <v>      -0.32000000       0.04000000      -0.00000000 </v>
   <v>      -0.28000000       0.04000000      -0.00000000 </v>
   <v>      -0.24000000       0.04000000       0.00000000 </v>
   <v>      -0.20000000       0.04000000      -0.00000000 </v>
   <v>      -0.16000000       0.04000000      -0.00000000 </v>
   <v>      -0.12000000       0.04000000      -0.00000000 </v>
   <v>      -0.08000000       0.04000000      -0.00000000 </v>
   <v>      -0.04000000       0.04000000       0.00000000 </v>
   <v>      -0.00000000       0.08000000       0.00000000 </v>
   <v>       0.04000000       0.08000000       0.00000000 </v>
   <v>       0.08000000       0.08000000       0.00000000 </v>
   <v>       0.12000000       0.08000000       0.00000000 </v>
   <v>       0.16000000       0.08000000       0.00000000 </v>
   <v>       0.20000000       0.08000000       0.00000000 </v>
   <v>       0.24000000       0.08000000      -0.00000000 </v>
   <v>       0.28000000       0.08000000      -0.00000000 </v>
   <v>       0.32000000       0.08000000       0.00000000 </v>
   <v>       0.36000000       0.08000000       0.00000000 </v>
   <v>       0.40000000       0.08000000       0.00000000 </v>
   <v>       0.44000000       0.08000000       0.00000000 </v>
   <v>       0.48000000       0.08000000       0.00000000 </v>
   <v>      -0.48000000       0.08000000       0.00000000 </v>
   <v>      -0.44000000       0.08000000       0.00000000 </v>
   <v>      -0.40000000       0.08000000      -0.00000000 </v>
   <v>      -0.36000000       0.08000000      -0.00000000 </v>
   <v>      -0.32000000       0.08000000      -0.00000000 </v>
   <v>      -0.28000000       0.08000000       0.00000000 </v>
   <v>      -0.24000000       0.08000000      -0.00000000 </v>
   <v>      -0.20000000       0.08000000      -0.00000000 </v>
   <v>      -0.16000000       0.08000000      -0.00000000 </v>
   <v>      -0.12000000       0.08000000      -0.00000000 </v>
   <v>      -0.08000000       0.08000000       0.00000000 </v>
   <v>      -0.04000000       0.08000000      -0.00000000 </v>
   <v>       0.00000000       0.12000000       0.00000000 </v>
   <v>       0.04000000       0.12000000       0.00000000 </v>
   <v>       0.08000000       0.12000000       0.00000000 </v>
   <v>       0.12000000       0.12000000       0.00000000 </v>
   <v>       0.16000000       0.12000000       0.00000000 </v>
   <v>       0.20000000       0.12000000      -0.00000000 </v>
   <v>       0.24000000       0.12000000       0.00000000 </v>
   <v>       0.28000000       0.12000000       0.00000000 </v>
   <v>       0.32000000       0.12000000       0.00000000 </v>
   <v>       0.36000000       0.12000000       0.00000000 </v>
   <v>       0.40000000       0.12000000       0.00000000 </v>
   <v>       0.44000000       0.12000000      -0.00000000 </v>
   <v>       0.48000000       0.12000000       0.00000000 </v>
   <v>      -0.48000000       0.12000000      -0.00000000 </v>
   <v>      -0.44000000       0.12000000       0.00000000 </v>
   <v>      -0.40000000       0.12000000      -0.00000000 </v>
   <v>      -0.36000000       0.12000000      -0.00000000 </v>
   <v>      -0.32000000       0.12000000      -0.00000000 </v>
   <v>      -0.28000000       0.12000000       0.00000000 </v>
   <v>      -0.24000000       0.12000000       0.00000000 </v>
   <v>      -0.20000000       0.12000000      -0.00000000 </v>
   <v>      -0.16000000       0.12000000      -0.00000000 </v>
   <v>      -0.12000000       0.12000000      -0.00000000 </v>
   <v>      -0.08000000       0.12000000       0.00000000 </v>
   <v>      -0.04000000       0.12000000       0.00000000 </v>
   <v>      -0.00000000       0.16000000       0.00000000 </v>
   <v>       0.04000000       0.16000000       0.00000000 </v>
   <v>       0.08000000       0.16000000       0.00000000 </v>
   <v>       0.12000000       0.16000000       0.00000000 </v>
   <v>       0.16000000       0.16000000       0.00000000 </v>
   <v>       0.20000000       0.16000000       0.00000000 </v>
   <v>       0.24000000       0.16000000       0.00000000 </v>
   <v>       0.28000000       0.16000000       0.00000000 </v>
   <v>       0.32000000       0.16000000       0.00000000 </v>
   <v>       0.36000000       0.16000000       0.00000000 </v>
   <v>       0.40000000       0.16000000      -0.00000000 </v>
   <v>       0.44000000       0.16000000       0.00000000 </v>
   <v>       0.48000000       0.16000000       0.00000000 </v>
   <v>      -0.48000000       0.16000000       0.00000000 </v>
   <v>      -0.44000000       0.16000000      -0.00000000 </v>
   <v>      -0.40000000       0.16000000      -0.00000000 </v>
   <v>      -0.36000000       0.16000000      -0.00000000 </v>
   <v>      -0.32000000       0.16000000      -0.00000000 </v>
   <v>      -0.28000000       0.16000000      -0.00000000 </v>
   <v>      -0.24000000       0.16000000      -0.00000000 </v>
   <v>      -0.20000000       0.16000000      -0.00000000 </v>
   <v>      -0.16000000       0.16000000       0.00000000 </v>
   <v>      -0.12000000       0.16000000      -0.00000000 </v>
   <v>      -0.08000000       0.16000000      -0.00000000 </v>
   <v>      -0.04000000       0.16000000      -0.00000000 </v>
   <v>       0.00000000       0.20000000       0.00000000 </v>
   <v>       0.04000000       0.20000000       0.00000000 </v>
   <v>       0.08000000       0.20000000       0.00000000 </v>
   <v>       0.12000000       0.20000000       0.00000000 </v>
   <v>       0.16000000       0.20000000       0.00000000 </v>
   <v>       0.20000000       0.20000000       0.00000000 </v>
   <v>       0.24000000       0.20000000       0.00000000 </v>
   <v>       0.28000000       0.20000000       0.00000000 </v>
   <v>       0.32000000       0.20000000       0.00000000 </v>
   <v>       0.36000000       0.20000000       0.00000000 </v>
   <v>       0.40000000       0.20000000       0.00000000 </v>
   <v>       0.44000000       0.20000000      -0.00000000 </v>
   <v>       0.48000000       0.20000000      -0.00000000 </v>
   <v>      -0.48000000       0.20000000       0.00000000 </v>
   <v>      -0.44000000       0.20000000      -0.00000000 </v>
   <v>      -0.40000000       0.20000000       0.00000000 </v>
   <v>      -0.36000000       0.20000000      -0.00000000 </v>
   <v>      -0.32000000       0.20000000      -0.00000000 </v>
   <v>      -0.28000000       0.20000000      -0.00000000 </v>
   <v>      -0.24000000       0.20000000       0.00000000 </v>
   <v>      -0.20000000       0.20000000       0.00000000 </v>
   <v>      -0.16000000       0.20000000       0.00000000 </v>
   <v>      -0.12000000       0.20000000      -0.00000000 </v>
   <v>      -0.08000000       0.20000000      -0.00000000 </v>
   <v>      -0.04000000       0.20000000       0.00000000 </v>
   <v>       0.00000000       0.24000000       0.00000000 </v>
   <v>       0.04000000       0.24000000      -0.00000000 </v>
   <v>       0.08000000       0.24000000       0.00000000 </v>
   <v>       0.12000000       0.24000000       0.00000000 </v>
   <v>       0.16000000       0.24000000       0.00000000 </v>
   <v>       0.20000000       0.24000000       0.00000000 </v>
   <v>       0.24000000       0.24000000      -0.00000000 </v>
   <v>       0.28000000       0.24000000       0.00000000 </v>
   <v>       0.32000000       0.24000000       0.00000000 </v>
   <v>       0.36000000       0.24000000       0.00000000 </v>
   <v>       0.40000000       0.24000000      -0.00000000 </v>
   <v>       0.44000000       0.24000000      -0.00000000 </v>
   <v>       0.48000000       0.24000000       0.00000000 </v>
   <v>      -0.48000000       0.24000000      -0.00000000 </v>
   <v>      -0.44000000       0.24000000       0.00000000 </v>
   <v>      -0.40000000       0.24000000      -0.00000000 </v>
   <v>      -0.36000000       0.24000000      -0.00000000 </v>
   <v>      -0.32000000       0.24000000      -0.00000000 </v>
   <v>      -0.28000000       0.24000000      -0.00000000 </v>
   <v>      -0.24000000       0.24000000      -0.00000000 </v>
   <v>      -0.20000000       0.24000000      -0.00000000 </v>
   <v>      -0.16000000       0.24000000      -0.00000000 </v>
   <v>      -0.12000000       0.24000000       0.00000000 </v>
   <v>      -0.08000000       0.24000000       0.00000000 </v>
   <v>      -0.04000000       0.24000000      -0.00000000 </v>
   <v>      -0.00000000       0.28000000      -0.00000000 </v>
   <v>       0.04000000       0.28000000       0.00000000 </v>
   <v>       0.08000000       0.28000000       0.00000000 </v>
   <v>       0.12000000       0.28000000       0.00000000 </v>
   <v>       0.16000000       0.28000000       0.00000000 </v>
   <v>       0.20000000       0.28000000       0.00000000 </v>
   <v>       0.24000000       0.28000000      -0.00000000 </v>
   <v>       0.28000000       0.28000000       0.00000000 </v>
   <v>       0.32000000       0.28000000       0.00000000 </v>
   <v>       0.36000000       0.28000000       0.00000000 </v>
   <v>       0.40000000       0.28000000      -0.00000000 </v>
   <v>       0.44000000       0.28000000      -0.00000000 </v>
   <v>       0.48000000       0.28000000      -0.00000000 </v>
   <v>      -0.48000000       0.28000000      -0.00000000 </v>
   <v>      -0.44000000       0.28000000      -0.00000000 </v>
   <v>      -0.40000000       0.28000000       0.00000000 </v>
   <v>      -0.36000000       0.28000000      -0.00000000 </v>
   <v>      -0.32000000       0.28000000      -0.00000000 </v>
   <v>      -0.28000000       0.28000000      -0.00000000 </v>
   <v>      -0.24000000       0.28000000       0.00000000 </v>
   <v>      -0.20000000       0.28000000       0.00000000 </v>
   <v>      -0.16000000       0.28000000       0.00000000 </v>
   <v>      -0.12000000       0.28000000      -0.00000000 </v>
   <v>      -0.08000000       0.28000000      -0.00000000 </v>
   <v>      -0.04000000       0.28000000      -0.00000000 </v>
   <v>       0.00000000       0.32000000       0.00000000 </v>
   <v>       0.04000000       0.32000000       0.00000000 </v>
   <v>       0.08000000       0.32000000       0.00000000 </v>
   <v>       0.12000000       0.32000000       0.00000000 </v>
   <v>       0.16000000       0.32000000       0.00000000 </v>
   <v>       0.20000000       0.32000000       0.00000000 </v>
   <v>       0.24000000       0.32000000       0.00000000 </v>
   <v>       0.28000000       0.32000000       0.00000000 </v>
   <v>       0.32000000       0.32000000       0.00000000 </v>
   <v>       0.36000000       0.32000000       0.00000000 </v>
   <v>       0.40000000       0.32000000       0.00000000 </v>
   <v>       0.44000000       0.32000000       0.00000000 </v>
   <v>       0.48000000       0.32000000       0.00000000 </v>
   <v>      -0.48000000       0.32000000      -0.00000000 </v>
   <v>      -0.44000000       0.32000000       0.00000000 </v>
   <v>      -0.40000000       0.32000000       0.00000000 </v>
   <v>      -0.36000000       0.32000000       0.00000000 </v>
   <v>      -0.32000000       0.32000000       0.00000000 </v>
   <v>      -0.28000000       0.32000000      -0.00000000 </v>
   <v>      -0.24000000       0.32000000       0.00000000 </v>
   <v>      -0.20000000       0.32000000      -0.00000000 </v>
   <v>      -0.16000000       0.32000000      -0.00000000 </v>
   <v>      -0.12000000       0.32000000      -0.00000000 </v>
   <v>      -0.08000000       0.32000000       0.00000000 </v>
   <v>      -0.04000000       0.32000000      -0.00000000 </v>
   <v>      -0.00000000       0.36000000       0.00000000 </v>
   <v>       0.04000000       0.36000000       0.00000000 </v>
   <v>       0.08000000       0.36000000       0.00000000 </v>
   <v>       0.12000000       0.36000000       0.00000000 </v>
   <v>       0.16000000       0.36000000       0.00000000 </v>
   <v>       0.20000000       0.36000000       0.00000000 </v>
   <v>       0.24000000       0.36000000       0.00000000 </v>
   <v>       0.28000000       0.36000000       0.00000000 </v>
   <v>       0.32000000       0.36000000       0.00000000 </v>
   <v>       0.36000000       0.36000000       0.00000000 </v>
   <v>       0.40000000       0.36000000       0.00000000 </v>
   <v>       0.44000000       0.36000000       0.00000000 </v>
   <v>       0.48000000       0.36000000      -0.00000000 </v>
   <v>      -0.48000000       0.36000000       0.00000000 </v>
   <v>      -0.44000000       0.36000000      -0.00000000 </v>
   <v>      -0.40000000       0.36000000       0.00000000 </v>
   <v>      -0.36000000       0.36000000       0.00000000 </v>
   <v>      -0.32000000       0.36000000      -0.00000000 </v>
   <v>      -0.28000000       0.36000000       0.00000000 </v>
   <v>      -0.24000000       0.36000000       0.00000000 </v>
   <v>      -0.20000000       0.36000000      -0.00000000 </v>
   <v>      -0.16000000       0.36000000      -0.00000000 </v>
   <v>      -0.12000000       0.36000000      -0.00000000 </v>
   <v>      -0.08000000       0.36000000       0.00000000 </v>
   <v>      -0.04000000       0.36000000       0.00000000 </v>
   <v>      -0.00000000       0.40000000      -0.00000000 </v>
   <v>       0.04000000       0.40000000       0.00000000 </v>
   <v>       0.08000000       0.40000000       0.00000000 </v>
   <v>       0.12000000       0.40000000       0.00000000 </v>
   <v>       0.16000000       0.40000000      -0.00000000 </v>
   <v>       0.20000000       0.40000000       0.00000000 </v>
   <v>       0.24000000       0.40000000      -0.00000000 </v>
   <v>       0.28000000       0.40000000       0.00000000 </v>
   <v>       0.32000000       0.40000000       0.00000000 </v>
   <v>       0.36000000       0.40000000       0.00000000 </v>
   <v>       0.40000000       0.40000000       0.00000000 </v>
   <v>       0.44000000       0.40000000      -0.00000000 </v>
   <v>       0.48000000       0.40000000      -0.00000000 </v>
   <v>      -0.48000000       0.40000000       0.00000000 </v>
   <v>      -0.44000000       0.40000000      -0.00000000 </v>
   <v>      -0.40000000       0.40000000      -0.00000000 </v>
   <v>      -0.36000000       0.40000000       0.00000000 </v>
   <v>      -0.32000000       0.40000000       0.00000000 </v>
   <v>      -0.28000000       0.40000000      -0.00000000 </v>
   <v>      -0.24000000       0.40000000      -0.00000000 </v>
   <v>      -0.20000000       0.40000000      -0.00000000 </v>
   <v>      -0.16000000       0.40000000      -0.00000000 </v>
   <v>      -0.12000000       0.40000000      -0.00000000 </v>
   <v>      -0.08000000       0.40000000       0.00000000 </v>
   <v>      -0.04000000       0.40000000       0.00000000 </v>
   <v>       0.00000000       0.44000000       0.00000000 </v>
   <v>       0.04000000       0.44000000       0.00000000 </v>
   <v>       0.08000000       0.44000000       0.00000000 </v>
   <v>       0.12000000       0.44000000       0.00000000 </v>
   <v>       0.16000000       0.44000000       0.00000000 </v>
   <v>       0.20000000       0.44000000       0.00000000 </v>
   <v>       0.24000000       0.44000000       0.00000000 </v>
   <v>       0.28000000       0.44000000       0.00000000 </v>
   <v>       0.32000000       0.44000000       0.00000000 </v>
   <v>       0.36000000       0.44000000       0.00000000 </v>
   <v>       0.40000000       0.44000000       0.00000000 </v>
   <v>       0.44000000       0.44000000      -0.00000000 </v>
   <v>       0.48000000       0.44000000       0.00000000 </v>
   <v>      -0.48000000       0.44000000      -0.00000000 </v>
   <v>      -0.44000000       0.44000000      -0.00000000 </v>
   <v>      -0.40000000       0.44000000      -0.00000000 </v>
   <v>      -0.36000000       0.44000000       0.00000000 </v>
   <v>      -0.32000000       0.44000000      -0.00000000 </v>
   <v>      -0.28000000       0.44000000       0.00000000 </v>
   <v>      -0.24000000       0.44000000       0.00000000 </v>
   <v>      -0.20000000       0.44000000       0.00000000 </v>
   <v>      -0.16000000       0.44000000       0.00000000 </v>
   <v>      -0.12000000       0.44000000       0.00000000 </v>
   <v>      -0.08000000       0.44000000       0.00000000 </v>
   <v>      -0.04000000       0.44000000       0.00000000 </v>
   <v>      -0.00000000       0.48000000      -0.00000000 </v>
   <v>       0.04000000       0.48000000       0.00000000 </v>
   <v>       0.08000000       0.48000000      -0.00000000 </v>
   <v>       0.12000000       0.48000000       0.00000000 </v>
   <v>       0.16000000       0.48000000       0.00000000 </v>
   <v>       0.20000000       0.48000000       0.00000000 </v>
   <v>       0.24000000       0.48000000      -0.00000000 </v>
   <v>       0.28000000       0.48000000       0.00000000 </v>
   <v>       0.32000000       0.48000000       0.00000000 </v>
   <v>       0.36000000       0.48000000       0.00000000 </v>
   <v>       0.40000000       0.48000000       0.00000000 </v>
   <v>       0.44000000       0.48000000      -0.00000000 </v>
   <v>       0.48000000       0.48000000      -0.00000000 </v>
   <v>      -0.48000000       0.48000000      -0.00000000 </v>
   <v>      -0.44000000       0.48000000      -0.00000000 </v>
   <v>      -0.40000000       0.48000000       0.00000000 </v>
   <v>      -0.36000000       0.48000000      -0.00000000 </v>
   <v>      -0.32000000       0.48000000       0.00000000 </v>
   <v>      -0.28000000       0.48000000      -0.00000000 </v>
   <v>      -0.24000000       0.48000000       0.00000000 </v>
   <v>      -0.20000000       0.48000000       0.00000000 </v>
   <v>      -0.16000000       0.48000000       0.00000000 </v>
   <v>      -0.12000000       0.48000000       0.00000000 </v>
   <v>      -0.08000000       0.48000000       0.00000000 </v>
   <v>      -0.04000000       0.48000000       0.00000000 </v>
   <v>       0.00000000      -0.48000000       0.00000000 </v>
   <v>       0.04000000      -0.48000000       0.00000000 </v>
   <v>       0.08000000      -0.48000000       0.00000000 </v>
   <v>       0.12000000      -0.48000000       0.00000000 </v>
   <v>       0.16000000      -0.48000000      -0.00000000 </v>
   <v>       0.20000000      -0.48000000      -0.00000000 </v>
   <v>       0.24000000      -0.48000000       0.00000000 </v>
   <v>       0.28000000      -0.48000000       0.00000000 </v>
   <v>       0.32000000      -0.48000000      -0.00000000 </v>
   <v>       0.36000000      -0.48000000       0.00000000 </v>
   <v>       0.40000000      -0.48000000      -0.00000000 </v>
   <v>       0.44000000      -0.48000000       0.00000000 </v>
   <v>       0.48000000      -0.48000000       0.00000000 </v>
   <v>      -0.48000000      -0.48000000       0.00000000 </v>
   <v>      -0.44000000      -0.48000000       0.00000000 </v>
   <v>      -0.40000000      -0.48000000      -0.00000000 </v>
   <v>      -0.36000000      -0.48000000      -0.00000000 </v>
   <v>      -0.32000000      -0.48000000      -0.00000000 </v>
   <v>      -0.28000000      -0.48000000       0.00000000 </v>
   <v>      -0.24000000      -0.48000000       0.00000000 </v>
   <v>      -0.20000000      -0.48000000       0.00000000 </v>
   <v>      -0.16000000      -0.48000000      -0.00000000 </v>
   <v>      -0.12000000      -0.48000000      -0.00000000 </v>
   <v>      -0.08000000      -0.48000000       0.00000000 </v>
   <v>      -0.04000000      -0.48000000      -0.00000000 </v>
   <v>      -0.00000000      -0.44000000      -0.00000000 </v>
   <v>       0.04000000      -0.44000000      -0.00000000 </v>
   <v>       0.08000000      -0.44000000      -0.00000000 </v>
   <v>       0.12000000      -0.44000000       0.00000000 </v>
   <v>       0.16000000      -0.44000000      -0.00000000 </v>
   <v>       0.20000000      -0.44000000       0.00000000 </v>
   <v>       0.24000000      -0.44000000       0.00000000 </v>
   <v>       0.28000000      -0.44000000       0.00000000 </v>
   <v>       0.32000000      -0.44000000       0.00000000 </v>
   <v>       0.36000000      -0.44000000       0.00000000 </v>
   <v>       0.40000000      -0.44000000       0.00000000 </v>
   <v>       0.44000000      -0.44000000       0.00000000 </v>
   <v>       0.48000000      -0.44000000       0.00000000 </v>
   <v>      -0.48000000      -0.44000000       0.00000000 </v>
   <v>      -0.44000000      -0.44000000       0.00000000 </v>
   <v>      -0.40000000      -0.44000000      -0.00000000 </v>
   <v>      -0.36000000      -0.44000000      -0.00000000 </v>
   <v>      -0.32000000      -0.44000000      -0.00000000 </v>
   <v>      -0.28000000      -0.44000000      -0.00000000 </v>
   <v>      -0.24000000      -0.44000000      -0.00000000 </v>
   <v>      -0.20000000      -0.44000000      -0.00000000 </v>
   <v>      -0.16000000      -0.44000000      -0.00000000 </v>
   <v>      -0.12000000      -0.44000000      -0.00000000 </v>
   <v>      -0.08000000      -0.44000000      -0.00000000 </v>
   <v>      -0.04000000      -0.44000000      -0.00000000 </v>
   <v>       0.00000000      -0.40000000       0.00000000 </v>
   <v>       0.04000000      -0.40000000      -0.00000000 </v>
   <v>       0.08000000      -0.40000000      -0.00000000 </v>
   <v>       0.12000000      -0.40000000       0.00000000 </v>
   <v>       0.16000000      -0.40000000       0.00000000 </v>
   <v>       0.20000000      -0.40000000       0.00000000 </v>
   <v>       0.24000000      -0.40000000       0.00000000 </v>
   <v>       0.28000000      -0.40000000       0.00000000 </v>
   <v>       0.32000000      -0.40000000       0.00000000 </v>
   <v>       0.36000000      -0.40000000       0.00000000 </v>
   <v>       0.40000000      -0.40000000       0.00000000 </v>
   <v>       0.44000000      -0.40000000       0.00000000 </v>
   <v>       0.48000000      -0.40000000       0.00000000 </v>
   <v>      -0.48000000      -0.40000000       0.00000000 </v>
   <v>      -0.44000000      -0.40000000       0.00000000 </v>
   <v>      -0.40000000      -0.40000000       0.00000000 </v>
   <v>      -0.36000000      -0.40000000      -0.00000000 </v>
   <v>      -0.32000000      -0.40000000      -0.00000000 </v>
   <v>      -0.28000000      -0.40000000      -0.00000000 </v>
   <v>      -0.24000000      -0.40000000       0.00000000 </v>
   <v>      -0.20000000      -0.40000000      -0.00000000 </v>
   <v>      -0.16000000      -0.40000000       0.00000000 </v>
   <v>      -0.12000000      -0.40000000       0.00000000 </v>
   <v>      -0.08000000      -0.40000000      -0.00000000 </v>
   <v>      -0.04000000      -0.40000000      -0.00000000 </v>
   <v>       0.00000000      -0.36000000      -0.00000000 </v>
   <v>       0.04000000      -0.36000000       0.00000000 </v>
   <v>       0.08000000      -0.36000000      -0.00000000 </v>
   <v>       0.12000000      -0.36000000       0.00000000 </v>
   <v>       0.16000000      -0.36000000       0.00000000 </v>
   <v>       0.20000000      -0.36000000       0.00000000 </v>
   <v>       0.24000000      -0.36000000      -0.00000000 </v>
   <v>       0.28000000      -0.36000000       0.00000000 </v>
   <v>       0.32000000      -0.36000000       0.00000000 </v>
   <v>       0.36000000      -0.36000000      -0.00000000 </v>
   <v>       0.40000000      -0.36000000      -0.00000000 </v>
   <v>       0.44000000      -0.36000000       0.00000000 </v>
   <v>       0.48000000      -0.36000000      -0.00000000 </v>
   <v>      -0.48000000      -0.36000000       0.00000000 </v>
   <v>      -0.44000000      -0.36000000      -0.00000000 </v>
   <v>      -0.40000000      -0.36000000      -0.00000000 </v>
   <v>      -0.36000000      -0.36000000      -0.00000000 </v>
   <v>      -0.32000000      -0.36000000      -0.00000000 </v>
   <v>      -0.28000000      -0.36000000       0.00000000 </v>
   <v>      -0.24000000      -0.36000000      -0.00000000 </v>
   <v>      -0.20000000      -0.36000000      -0.00000000 </v>
   <v>      -0.16000000      -0.36000000       0.00000000 </v>
   <v>      -0.12000000      -0.36000000      -0.00000000 </v>
   <v>      -0.08000000      -0.36000000      -0.00000000 </v>
   <v>      -0.04000000      -0.36000000      -0.00000000 </v>
   <v>      -0.00000000      -0.32000000      -0.00000000 </v>
   <v>       0.04000000      -0.32000000       0.00000000 </v>
   <v>       0.08000000      -0.32000000       0.00000000 </v>
   <v>       0.12000000      -0.32000000       0.00000000 </v>
   <v>       0.16000000      -0.32000000       0.00000000 </v>
   <v>       0.20000000      -0.32000000       0.00000000 </v>
   <v>       0.24000000      -0.32000000      -0.00000000 </v>
   <v>       0.28000000      -0.32000000       0.00000000 </v>
   <v>       0.32000000      -0.32000000       0.00000000 </v>
   <v>       0.36000000      -0.32000000       0.00000000 </v>
   <v>       0.40000000      -0.32000000      -0.00000000 </v>
   <v>       0.44000000      -0.32000000       0.00000000 </v>
   <v>       0.48000000      -0.32000000       0.00000000 </v>
   <v>      -0.48000000      -0.32000000      -0.00000000 </v>
   <v>      -0.44000000      -0.32000000      -0.00000000 </v>
   <v>      -0.40000000      -0.32000000       0.00000000 </v>
   <v>      -0.36000000      -0.32000000      -0.00000000 </v>
   <v>      -0.32000000      -0.32000000      -0.00000000 </v>
   <v>      -0.28000000      -0.32000000      -0.00000000 </v>
   <v>      -0.24000000      -0.32000000       0.00000000 </v>
   <v>      -0.20000000      -0.32000000      -0.00000000 </v>
   <v>      -0.16000000      -0.32000000      -0.00000000 </v>
   <v>      -0.12000000      -0.32000000      -0.00000000 </v>
   <v>      -0.08000000      -0.32000000      -0.00000000 </v>
   <v>      -0.04000000      -0.32000000       0.00000000 </v>
   <v>       0.00000000      -0.28000000       0.00000000 </v>
   <v>       0.04000000      -0.28000000       0.00000000 </v>
   <v>       0.08000000      -0.28000000       0.00000000 </v>
   <v>       0.12000000      -0.28000000       0.00000000 </v>
   <v>       0.16000000      -0.28000000       0.00000000 </v>
   <v>       0.20000000      -0.28000000       0.00000000 </v>
   <v>       0.24000000      -0.28000000       0.00000000 </v>
   <v>       0.28000000      -0.28000000       0.00000000 </v>
   <v>       0.32000000      -0.28000000       0.00000000 </v>
   <v>       0.36000000      -0.28000000       0.00000000 </v>
   <v>       0.40000000      -0.28000000      -0.00000000 </v>
   <v>       0.44000000      -0.28000000       0.00000000 </v>
   <v>       0.48000000      -0.28000000       0.00000000 </v>
   <v>      -0.48000000      -0.28000000       0.00000000 </v>
   <v>      -0.44000000      -0.28000000       0.00000000 </v>
   <v>      -0.40000000      -0.28000000       0.00000000 </v>
   <v>      -0.36000000      -0.28000000       0.00000000 </v>
   <v>      -0.32000000      -0.28000000      -0.00000000 </v>
   <v>      -0.28000000      -0.28000000      -0.00000000 </v>
   <v>      -0.24000000      -0.28000000       0.00000000 </v>
   <v>      -0.20000000      -0.28000000      -0.00000000 </v>
   <v>      -0.16000000      -0.28000000      -0.00000000 </v>
   <v>      -0.12000000      -0.28000000      -0.00000000 </v>
   <v>      -0.08000000      -0.28000000      -0.00000000 </v>
   <v>      -0.04000000      -0.28000000       0.00000000 </v>
   <v>       0.00000000      -0.24000000      -0.00000000 </v>
   <v>       0.04000000      -0.24000000       0.00000000 </v>
   <v>       0.08000000      -0.24000000       0.00000000 </v>
   <v>       0.12000000      -0.24000000       0.00000000 </v>
   <v>       0.16000000      -0.24000000       0.00000000 </v>
   <v>       0.20000000      -0.24000000       0.00000000 </v>
   <v>       0.24000000      -0.24000000       0.00000000 </v>
   <v>       0.28000000      -0.24000000       0.00000000 </v>
   <v>       0.32000000      -0.24000000       0.00000000 </v>
   <v>       0.36000000      -0.24000000       0.00000000 </v>
   <v>       0.40000000      -0.24000000       0.00000000 </v>
   <v>       0.44000000      -0.24000000       0.00000000 </v>
   <v>       0.48000000      -0.24000000       0.00000000 </v>
   <v>      -0.48000000      -0.24000000       0.00000000 </v>
   <v>      -0.44000000      -0.24000000       0.00000000 </v>
   <v>      -0.40000000      -0.24000000       0.00000000 </v>
   <v>      -0.36000000      -0.24000000       0.00000000 </v>
   <v>      -0.32000000      -0.24000000      -0.00000000 </v>
   <v>      -0.28000000      -0.24000000       0.00000000 </v>
   <v>      -0.24000000      -0.24000000       0.00000000 </v>
   <v>      -0.20000000      -0.24000000       0.00000000 </v>
   <v>      -0.16000000      -0.24000000      -0.00000000 </v>
   <v>      -0.12000000      -0.24000000      -0.00000000 </v>
   <v>      -0.08000000      -0.24000000      -0.00000000 </v>
   <v>      -0.04000000      -0.24000000       0.00000000 </v>
   <v>       0.00000000      -0.20000000       0.00000000 </v>
   <v>       0.04000000      -0.20000000      -0.00000000 </v>
   <v>       0.08000000      -0.20000000       0.00000000 </v>
   <v>       0.12000000      -0.20000000       0.00000000 </v>
   <v>       0.16000000      -0.20000000       0.00000000 </v>
   <v>       0.20000000      -0.20000000      -0.00000000 </v>
   <v>       0.24000000      -0.20000000      -0.00000000 </v>
   <v>       0.28000000      -0.20000000       0.00000000 </v>
   <v>       0.32000000      -0.20000000       0.00000000 </v>
   <v>       0.36000000      -0.20000000       0.00000000 </v>
   <v>       0.40000000      -0.20000000       0.00000000 </v>
   <v>       0.44000000      -0.20000000       0.00000000 </v>
   <v>       0.48000000      -0.20000000       0.00000000 </v>
   <v>      -0.48000000      -0.20000000       0.00000000 </v>
   <v>      -0.44000000      -0.20000000       0.00000000 </v>
   <v>      -0.40000000      -0.20000000       0.00000000 </v>
   <v>      -0.36000000      -0.20000000      -0.00000000 </v>
   <v>      -0.32000000      -0.20000000      -0.00000000 </v>
   <v>      -0.28000000      -0.20000000      -0.00000000 </v>
   <v>      -0.24000000      -0.20000000       0.00000000 </v>
   <v>      -0.20000000      -0.20000000      -0.00000000 </v>
   <v>      -0.16000000      -0.20000000      -0.00000000 </v>
   <v>      -0.12000000      -0.20000000      -0.00000000 </v>
   <v>      -0.08000000      -0.20000000       0.00000000 </v>
   <v>      -0.04000000      -0.20000000      -0.00000000 </v>
   <v>       0.00000000      -0.16000000      -0.00000000 </v>
   <v>       0.04000000      -0.16000000       0.00000000 </v>
   <v>       0.08000000      -0.16000000       0.00000000 </v>
   <v>       0.12000000      -0.16000000       0.00000000 </v>
   <v>       0.16000000      -0.16000000       0.00000000 </v>
   <v>       0.20000000      -0.16000000       0.00000000 </v>
   <v>       0.24000000      -0.16000000       0.00000000 </v>
   <v>       0.28000000      -0.16000000       0.00000000 </v>
   <v>       0.32000000      -0.16000000       0.00000000 </v>
   <v>       0.36000000      -0.16000000       0.00000000 </v>
   <v>       0.40000000      -0.16000000       0.00000000 </v>
   <v>       0.44000000      -0.16000000       0.00000000 </v>
   <v>       0.48000000      -0.16000000      -0.00000000 </v>
   <v>      -0.48000000      -0.16000000       0.00000000 </v>
   <v>      -0.44000000      -0.16000000       0.00000000 </v>
   <v>      -0.40000000      -0.16000000       0.00000000 </v>
   <v>      -0.36000000      -0.16000000      -0.00000000 </v>
   <v>      -0.32000000      -0.16000000       0.00000000 </v>
   <v>      -0.28000000      -0.16000000       0.00000000 </v>
   <v>      -0.24000000      -0.16000000       0.00000000 </v>
   <v>      -0.20000000      -0.16000000      -0.00000000 </v>
   <v>      -0.16000000      -0.16000000      -0.00000000 </v>
   <v>      -0.12000000      -0.16000000      -0.00000000 </v>
   <v>      -0.08000000      -0.16000000      -0.00000000 </v>
   <v>      -0.04000000      -0.16000000       0.00000000 </v>
   <v>       0.00000000      -0.12000000      -0.00000000 </v>
   <v>       0.04000000      -0.12000000       0.00000000 </v>
   <v>       0.08000000      -0.12000000       0.00000000 </v>
   <v>       0.12000000      -0.12000000       0.00000000 </v>
   <v>       0.16000000      -0.12000000       0.00000000 </v>
   <v>       0.20000000      -0.12000000       0.00000000 </v>
   <v>       0.24000000      -0.12000000       0.00000000 </v>
   <v>       0.28000000      -0.12000000       0.00000000 </v>
   <v>       0.32000000      -0.12000000       0.00000000 </v>
   <v>       0.36000000      -0.12000000       0.00000000 </v>
   <v>       0.40000000      -0.12000000       0.00000000 </v>
   <v>       0.44000000      -0.12000000       0.00000000 </v>
   <v>       0.48000000      -0.12000000       0.00000000 </v>
   <v>      -0.48000000      -0.12000000       0.00000000 </v>
   <v>      -0.44000000      -0.12000000       0.00000000 </v>
   <v>      -0.40000000      -0.12000000      -0.00000000 </v>
   <v>      -0.36000000      -0.12000000       0.00000000 </v>
   <v>      -0.32000000      -0.12000000      -0.00000000 </v>
   <v>      -0.28000000      -0.12000000       0.00000000 </v>
   <v>      -0.24000000      -0.12000000      -0.00000000 </v>
   <v>      -0.20000000      -0.12000000       0.00000000 </v>
   <v>      -0.16000000      -0.12000000       0.00000000 </v>
   <v>      -0.12000000      -0.12000000      -0.00000000 </v>
   <v>      -0.08000000      -0.12000000       0.00000000 </v>
   <v>      -0.04000000      -0.12000000      -0.00000000 </v>
   <v>       0.00000000      -0.08000000      -0.00000000 </v>
   <v>       0.04000000      -0.08000000       0.00000000 </v>
   <v>       0.08000000      -0.08000000       0.00000000 </v>
   <v>       0.12000000      -0.08000000       0.00000000 </v>
   <v>       0.16000000      -0.08000000       0.00000000 </v>
   <v>       0.20000000      -0.08000000       0.00000000 </v>
   <v>       0.24000000      -0.08000000       0.00000000 </v>
   <v>       0.28000000      -0.08000000       0.00000000 </v>
   <v>       0.32000000      -0.08000000       0.00000000 </v>
   <v>       0.36000000      -0.08000000       0.00000000 </v>
   <v>       0.40000000      -0.08000000       0.00000000 </v>
   <v>       0.44000000      -0.08000000       0.00000000 </v>
   <v>       0.48000000      -0.08000000       0.00000000 </v>
   <v>      -0.48000000      -0.08000000      -0.00000000 </v>
   <v>      -0.44000000      -0.08000000      -0.00000000 </v>
   <v>      -0.40000000      -0.08000000       0.00000000 </v>
   <v>      -0.36000000      -0.08000000      -0.00000000 </v>
   <v>      -0.32000000      -0.08000000      -0.00000000 </v>
   <v>      -0.28000000      -0.08000000       0.00000000 </v>
   <v>      -0.24000000      -0.08000000       0.00000000 </v>
   <v>      -0.20000000      -0.08000000      -0.00000000 </v>
   <v>      -0.16000000      -0.08000000       0.00000000 </v>
   <v>      -0.12000000      -0.08000000      -0.00000000 </v>
   <v>      -0.08000000      -0.08000000      -0.00000000 </v>
   <v>      -0.04000000      -0.08000000      -0.00000000 </v>
   <v>       0.00000000      -0.04000000      -0.00000000 </v>
   <v>       0.04000000      -0.04000000       0.00000000 </v>
   <v>       0.08000000      -0.04000000       0.00000000 </v>
   <v>       0.12000000      -0.04000000       0.00000000 </v>
   <v>       0.16000000      -0.04000000       0.00000000 </v>
   <v>       0.20000000      -0.04000000       0.00000000 </v>
   <v>       0.24000000      -0.04000000      -0.00000000 </v>
   <v>       0.28000000      -0.04000000       0.00000000 </v>
   <v>       0.32000000      -0.04000000       0.00000000 </v>
   <v>       0.36000000      -0.04000000       0.00000000 </v>
   <v>       0.40000000      -0.04000000      -0.00000000 </v>
   <v>       0.44000000      -0.04000000       0.00000000 </v>
   <v>       0.48000000      -0.04000000       0.00000000 </v>
   <v>      -0.48000000      -0.04000000       0.00000000 </v>
   <v>      -0.44000000      -0.04000000       0.00000000 </v>
   <v>      -0.40000000      -0.04000000      -0.00000000 </v>
   <v>      -0.36000000      -0.04000000       0.00000000 </v>
   <v>      -0.32000000      -0.04000000      -0.00000000 </v>
   <v>      -0.28000000      -0.04000000      -0.00000000 </v>
   <v>      -0.24000000      -0.04000000       0.00000000 </v>
   <v>      -0.20000000      -0.04000000       0.00000000 </v>
   <v>      -0.16000000      -0.04000000       0.00000000 </v>
   <v>      -0.12000000      -0.04000000       0.00000000 </v>
   <v>      -0.08000000      -0.04000000       0.00000000 </v>
   <v>      -0.04000000      -0.04000000      -0.00000000 </v>
  </varray>
  <varray name="weights" >
   <v>       0.00160000 </v>
   <v>       0.00160000 </v>
   <v>       0.00160000 </v>
   <v>       0.00160000 </v>
   <v>       0.00160000 </v>
   <v>       0.00160000 </v>
   <v>       0.00160000 </v>
   <v>       0.00160000 </v>
   <v>       0.00160000 </v>
   <v>       0.00160000 </v>
   <v>       0.00160000 </v>
   <v>       0.00160000 </v>
   <v>       0.00160000 </v>
   <v>       0.00160000 </v>
   <v>       0.00160000 </v>
   <v>       0.00160000 </v>
   <v>       0.00160000 </v>
   <v>       0.00160000 </v>
   <v>       0.00160000 </v>
   <v>       0.00160000 </v>
   <v>       0.00160000 </v>
   <v>       0.00160000 </v>
   <v>       0.00160000 </v>
   <v>       0.00160000 </v>
   <v>       0.00160000 </v>
   <v>       0.00160000 </v>
   <v>       0.00160000 </v>
   <v>       0.00160000 </v>
   <v>       0.00160000 </v>
   <v>       0.00160000 </v>
   <v>       0.00160000 </v>
   <v>       0.00160000 </v>
   <v>       0.00160000 </v>
   <v>       0.00160000 </v>
   <v>       0.00160000 </v>
   <v>       0.00160000 </v>
   <v>       0.00160000 </v>
   <v>       0.00160000 </v>
   <v>       0.00160000 </v>
   <v>       0.00160000 </v>
   <v>       0.00160000 </v>
   <v>       0.00160000 </v>
   <v>       0.00160000 </v>
   <v>       0.00160000 </v>
   <v>       0.00160000 </v>
   <v>       0.00160000 </v>
   <v>       0.00160000 </v>
   <v>       0.00160000 </v>
   <v>       0.00160000 </v>
   <v>       0.00160000 </v>
   <v>       0.00160000 </v>
   <v>       0.00160000 </v>
   <v>       0.00160000 </v>
   <v>       0.00160000 </v>
   <v>       0.00160000 </v>
   <v>       0.00160000 </v>
   <v>       0.00160000 </v>
   <v>       0.00160000 </v>
   <v>       0.00160000 </v>
   <v>       0.00160000 </v>
   <v>       0.00160000 </v>
   <v>       0.00160000 </v>
   <v>       0.00160000 </v>
   <v>       0.00160000 </v>
   <v>       0.00160000 </v>
   <v>       0.00160000 </v>
   <v>       0.00160000 </v>
   <v>       0.00160000 </v>
   <v>       0.00160000 </v>
   <v>       0.00160000 </v>
   <v>       0.00160000 </v>
   <v>       0.00160000 </v>
   <v>       0.00160000 </v>
   <v>       0.00160000 </v>
   <v>       0.00160000 </v>
   <v>       0.00160000 </v>
   <v>       0.00160000 </v>
   <v>       0.00160000 </v>
   <v>       0.00160000 </v>
   <v>       0.00160000 </v>
   <v>       0.00160000 </v>
   <v>       0.00160000 </v>
   <v>       0.00160000 </v>
   <v>       0.00160000 </v>
   <v>       0.00160000 </v>
   <v>       0.00160000 </v>
   <v>       0.00160000 </v>
   <v>       0.00160000 </v>
   <v>       0.00160000 </v>
   <v>       0.00160000 </v>
   <v>       0.00160000 </v>
   <v>       0.00160000 </v>
   <v>       0.00160000 </v>
   <v>       0.00160000 </v>
   <v>       0.00160000 </v>
   <v>       0.00160000 </v>
   <v>       0.00160000 </v>
   <v>       0.00160000 </v>
   <v>       0.00160000 </v>
   <v>       0.00160000 </v>
   <v>       0.00160000 </v>
   <v>       0.00160000 </v>
   <v>       0.00160000 </v>
   <v>       0.00160000 </v>
   <v>       0.00160000 </v>
   <v>       0.00160000 </v>
   <v>       0.00160000 </v>
   <v>       0.00160000 </v>
   <v>       0.00160000 </v>
   <v>       0.00160000 </v>
   <v>       0.00160000 </v>
   <v>       0.00160000 </v>
   <v>       0.00160000 </v>
   <v>       0.00160000 </v>
   <v>       0.00160000 </v>
   <v>       0.00160000 </v>
   <v>       0.00160000 </v>
   <v>       0.00160000 </v>
   <v>       0.00160000 </v>
   <v>       0.00160000 </v>
   <v>       0.00160000 </v>
   <v>       0.00160000 </v>
   <v>       0.00160000 </v>
   <v>       0.00160000 </v>
   <v>       0.00160000 </v>
   <v>       0.00160000 </v>
   <v>       0.00160000 </v>
   <v>       0.00160000 </v>
   <v>       0.00160000 </v>
   <v>       0.00160000 </v>
   <v>       0.00160000 </v>
   <v>       0.00160000 </v>
   <v>       0.00160000 </v>
   <v>       0.00160000 </v>
   <v>       0.00160000 </v>
   <v>       0.00160000 </v>
   <v>       0.00160000 </v>
   <v>       0.00160000 </v>
   <v>       0.00160000 </v>
   <v>       0.00160000 </v>
   <v>       0.00160000 </v>
   <v>       0.00160000 </v>
   <v>       0.00160000 </v>
   <v>       0.00160000 </v>
   <v>       0.00160000 </v>
   <v>       0.00160000 </v>
   <v>       0.00160000 </v>
   <v>       0.00160000 </v>
   <v>       0.00160000 </v>
   <v>       0.00160000 </v>
   <v>       0.00160000 </v>
   <v>       0.00160000 </v>
   <v>       0.00160000 </v>
   <v>       0.00160000 </v>
   <v>       0.00160000 </v>
   <v>       0.00160000 </v>
   <v>       0.00160000 </v>
   <v>       0.00160000 </v>
   <v>       0.00160000 </v>
   <v>       0.00160000 </v>
   <v>       0.00160000 </v>
   <v>       0.00160000 </v>
   <v>       0.00160000 </v>
   <v>       0.00160000 </v>
   <v>       0.00160000 </v>
   <v>       0.00160000 </v>
   <v>       0.00160000 </v>
   <v>       0.00160000 </v>
   <v>       0.00160000 </v>
   <v>       0.00160000 </v>
   <v>       0.00160000 </v>
   <v>       0.00160000 </v>
   <v>       0.00160000 </v>
   <v>       0.00160000 </v>
   <v>       0.00160000 </v>
   <v>       0.00160000 </v>
   <v>       0.00160000 </v>
   <v>       0.00160000 </v>
   <v>       0.00160000 </v>
   <v>       0.00160000 </v>
   <v>       0.00160000 </v>
   <v>       0.00160000 </v>
   <v>       0.00160000 </v>
   <v>       0.00160000 </v>
   <v>       0.00160000 </v>
   <v>       0.00160000 </v>
   <v>       0.00160000 </v>
   <v>       0.00160000 </v>
   <v>       0.00160000 </v>
   <v>       0.00160000 </v>
   <v>       0.00160000 </v>
   <v>       0.00160000 </v>
   <v>       0.00160000 </v>
   <v>       0.00160000 </v>
   <v>       0.00160000 </v>
   <v>       0.00160000 </v>
   <v>       0.00160000 </v>
   <v>       0.00160000 </v>
   <v>       0.00160000 </v>
   <v>       0.00160000 </v>
   <v>       0.00160000 </v>
   <v>       0.00160000 </v>
   <v>       0.00160000 </v>
   <v>       0.00160000 </v>
   <v>       0.00160000 </v>
   <v>       0.00160000 </v>
   <v>       0.00160000 </v>
   <v>       0.00160000 </v>
   <v>       0.00160000 </v>
   <v>       0.00160000 </v>
   <v>       0.00160000 </v>
   <v>       0.00160000 </v>
   <v>       0.00160000 </v>
   <v>       0.00160000 </v>
   <v>       0.00160000 </v>
   <v>       0.00160000 </v>
   <v>       0.00160000 </v>
   <v>       0.00160000 </v>
   <v>       0.00160000 </v>
   <v>       0.00160000 </v>
   <v>       0.00160000 </v>
   <v>       0.00160000 </v>
   <v>       0.00160000 </v>
   <v>       0.00160000 </v>
   <v>       0.00160000 </v>
   <v>       0.00160000 </v>
   <v>       0.00160000 </v>
   <v>       0.00160000 </v>
   <v>       0.00160000 </v>
   <v>       0.00160000 </v>
   <v>       0.00160000 </v>
   <v>       0.00160000 </v>
   <v>       0.00160000 </v>
   <v>       0.00160000 </v>
   <v>       0.00160000 </v>
   <v>       0.00160000 </v>
   <v>       0.00160000 </v>
   <v>       0.00160000 </v>
   <v>       0.00160000 </v>
   <v>       0.00160000 </v>
   <v>       0.00160000 </v>
   <v>       0.00160000 </v>
   <v>       0.00160000 </v>
   <v>       0.00160000 </v>
   <v>       0.00160000 </v>
   <v>       0.00160000 </v>
   <v>       0.00160000 </v>
   <v>       0.00160000 </v>
   <v>       0.00160000 </v>
   <v>       0.00160000 </v>
   <v>       0.00160000 </v>
   <v>       0.00160000 </v>
   <v>       0.00160000 </v>
   <v>       0.00160000 </v>
   <v>       0.00160000 </v>
   <v>       0.00160000 </v>
   <v>       0.00160000 </v>
   <v>       0.00160000 </v>
   <v>       0.00160000 </v>
   <v>       0.00160000 </v>
   <v>       0.00160000 </v>
   <v>       0.00160000 </v>
   <v>       0.00160000 </v>
   <v>       0.00160000 </v>
   <v>       0.00160000 </v>
   <v>       0.00160000 </v>
   <v>       0.00160000 </v>
   <v>       0.00160000 </v>
   <v>       0.00160000 </v>
   <v>       0.00160000 </v>
   <v>       0.00160000 </v>
   <v>       0.00160000 </v>
   <v>       0.00160000 </v>
   <v>       0.00160000 </v>
   <v>       0.00160000 </v>
   <v>       0.00160000 </v>
   <v>       0.00160000 </v>
   <v>       0.00160000 </v>
   <v>       0.00160000 </v>
   <v>       0.00160000 </v>
   <v>       0.00160000 </v>
   <v>       0.00160000 </v>
   <v>       0.00160000 </v>
   <v>       0.00160000 </v>
   <v>       0.00160000 </v>
   <v>       0.00160000 </v>
   <v>       0.00160000 </v>
   <v>       0.00160000 </v>
   <v>       0.00160000 </v>
   <v>       0.00160000 </v>
   <v>       0.00160000 </v>
   <v>       0.00160000 </v>
   <v>       0.00160000 </v>
   <v>       0.00160000 </v>
   <v>       0.00160000 </v>
   <v>       0.00160000 </v>
   <v>       0.00160000 </v>
   <v>       0.00160000 </v>
   <v>       0.00160000 </v>
   <v>       0.00160000 </v>
   <v>       0.00160000 </v>
   <v>       0.00160000 </v>
   <v>       0.00160000 </v>
   <v>       0.00160000 </v>
   <v>       0.00160000 </v>
   <v>       0.00160000 </v>
   <v>       0.00160000 </v>
   <v>       0.00160000 </v>
   <v>       0.00160000 </v>
   <v>       0.00160000 </v>
   <v>       0.00160000 </v>
   <v>       0.00160000 </v>
   <v>       0.00160000 </v>
   <v>       0.00160000 </v>
   <v>       0.00160000 </v>
   <v>       0.00160000 </v>
   <v>       0.00160000 </v>
   <v>       0.00160000 </v>
   <v>       0.00160000 </v>
   <v>       0.00160000 </v>
   <v>       0.00160000 </v>
   <v>       0.00160000 </v>
   <v>       0.00160000 </v>
   <v>       0.00160000 </v>
   <v>       0.00160000 </v>
   <v>       0.00160000 </v>
   <v>       0.00160000 </v>
   <v>       0.00160000 </v>
   <v>       0.00160000 </v>
   <v>       0.00160000 </v>
   <v>       0.00160000 </v>
   <v>       0.00160000 </v>
   <v>       0.00160000 </v>
   <v>       0.00160000 </v>
   <v>       0.00160000 </v>
   <v>       0.00160000 </v>
   <v>       0.00160000 </v>
   <v>       0.00160000 </v>
   <v>       0.00160000 </v>
   <v>       0.00160000 </v>
   <v>       0.00160000 </v>
   <v>       0.00160000 </v>
   <v>       0.00160000 </v>
   <v>       0.00160000 </v>
   <v>       0.00160000 </v>
   <v>       0.00160000 </v>
   <v>       0.00160000 </v>
   <v>       0.00160000 </v>
   <v>       0.00160000 </v>
   <v>       0.00160000 </v>
   <v>       0.00160000 </v>
   <v>       0.00160000 </v>
   <v>       0.00160000 </v>
   <v>       0.00160000 </v>
   <v>       0.00160000 </v>
   <v>       0.00160000 </v>
   <v>       0.00160000 </v>
   <v>       0.00160000 </v>
   <v>       0.00160000 </v>
   <v>       0.00160000 </v>
   <v>       0.00160000 </v>
   <v>       0.00160000 </v>
   <v>       0.00160000 </v>
   <v>       0.00160000 </v>
   <v>       0.00160000 </v>
   <v>       0.00160000 </v>
   <v>       0.00160000 </v>
   <v>       0.00160000 </v>
   <v>       0.00160000 </v>
   <v>       0.00160000 </v>
   <v>       0.00160000 </v>
   <v>       0.00160000 </v>
   <v>       0.00160000 </v>
   <v>       0.00160000 </v>
   <v>       0.00160000 </v>
   <v>       0.00160000 </v>
   <v>       0.00160000 </v>
   <v>       0.00160000 </v>
   <v>       0.00160000 </v>
   <v>       0.00160000 </v>
   <v>       0.00160000 </v>
   <v>       0.00160000 </v>
   <v>       0.00160000 </v>
   <v>       0.00160000 </v>
   <v>       0.00160000 </v>
   <v>       0.00160000 </v>
   <v>       0.00160000 </v>
   <v>       0.00160000 </v>
   <v>       0.00160000 </v>
   <v>       0.00160000 </v>
   <v>       0.00160000 </v>
   <v>       0.00160000 </v>
   <v>       0.00160000 </v>
   <v>       0.00160000 </v>
   <v>       0.00160000 </v>
   <v>       0.00160000 </v>
   <v>       0.00160000 </v>
   <v>       0.00160000 </v>
   <v>       0.00160000 </v>
   <v>       0.00160000 </v>
   <v>       0.00160000 </v>
   <v>       0.00160000 </v>
   <v>       0.00160000 </v>
   <v>       0.00160000 </v>
   <v>       0.00160000 </v>
   <v>       0.00160000 </v>
   <v>       0.00160000 </v>
   <v>       0.00160000 </v>
   <v>       0.00160000 </v>
   <v>       0.00160000 </v>
   <v>       0.00160000 </v>
   <v>       0.00160000 </v>
   <v>       0.00160000 </v>
   <v>       0.00160000 </v>
   <v>       0.00160000 </v>
   <v>       0.00160000 </v>
   <v>       0.00160000 </v>
   <v>       0.00160000 </v>
   <v>       0.00160000 </v>
   <v>       0.00160000 </v>
   <v>       0.00160000 </v>
   <v>       0.00160000 </v>
   <v>       0.00160000 </v>
   <v>       0.00160000 </v>
   <v>       0.00160000 </v>
   <v>       0.00160000 </v>
   <v>       0.00160000 </v>
   <v>       0.00160000 </v>
   <v>       0.00160000 </v>
   <v>       0.00160000 </v>
   <v>       0.00160000 </v>
   <v>       0.00160000 </v>
   <v>       0.00160000 </v>
   <v>       0.00160000 </v>
   <v>       0.00160000 </v>
   <v>       0.00160000 </v>
   <v>       0.00160000 </v>
   <v>       0.00160000 </v>
   <v>       0.00160000 </v>
   <v>       0.00160000 </v>
   <v>       0.00160000 </v>
   <v>       0.00160000 </v>
   <v>       0.00160000 </v>
   <v>       0.00160000 </v>
   <v>       0.00160000 </v>
   <v>       0.00160000 </v>
   <v>       0.00160000 </v>
   <v>       0.00160000 </v>
   <v>       0.00160000 </v>
   <v>       0.00160000 </v>
   <v>       0.00160000 </v>
   <v>       0.00160000 </v>
   <v>       0.00160000 </v>
   <v>       0.00160000 </v>
   <v>       0.00160000 </v>
   <v>       0.00160000 </v>
   <v>       0.00160000 </v>
   <v>       0.00160000 </v>
   <v>       0.00160000 </v>
   <v>       0.00160000 </v>
   <v>       0.00160000 </v>
   <v>       0.00160000 </v>
   <v>       0.00160000 </v>
   <v>       0.00160000 </v>
   <v>       0.00160000 </v>
   <v>       0.00160000 </v>
   <v>       0.00160000 </v>
   <v>       0.00160000 </v>
   <v>       0.00160000 </v>
   <v>       0.00160000 </v>
   <v>       0.00160000 </v>
   <v>       0.00160000 </v>
   <v>       0.00160000 </v>
   <v>       0.00160000 </v>
   <v>       0.00160000 </v>
   <v>       0.00160000 </v>
   <v>       0.00160000 </v>
   <v>       0.00160000 </v>
   <v>       0.00160000 </v>
   <v>       0.00160000 </v>
   <v>       0.00160000 </v>
   <v>       0.00160000 </v>
   <v>       0.00160000 </v>
   <v>       0.00160000 </v>
   <v>       0.00160000 </v>
   <v>       0.00160000 </v>
   <v>       0.00160000 </v>
   <v>       0.00160000 </v>
   <v>       0.00160000 </v>
   <v>       0.00160000 </v>
   <v>       0.00160000 </v>
   <v>       0.00160000 </v>
   <v>       0.00160000 </v>
   <v>       0.00160000 </v>
   <v>       0.00160000 </v>
   <v>       0.00160000 </v>
   <v>       0.00160000 </v>
   <v>       0.00160000 </v>
   <v>       0.00160000 </v>
   <v>       0.00160000 </v>
   <v>       0.00160000 </v>
   <v>       0.00160000 </v>
   <v>       0.00160000 </v>
   <v>       0.00160000 </v>
   <v>       0.00160000 </v>
   <v>       0.00160000 </v>
   <v>       0.00160000 </v>
   <v>       0.00160000 </v>
   <v>       0.00160000 </v>
   <v>       0.00160000 </v>
   <v>       0.00160000 </v>
   <v>       0.00160000 </v>
   <v>       0.00160000 </v>
   <v>       0.00160000 </v>
   <v>       0.00160000 </v>
   <v>       0.00160000 </v>
   <v>       0.00160000 </v>
   <v>       0.00160000 </v>
   <v>       0.00160000 </v>
   <v>       0.00160000 </v>
   <v>       0.00160000 </v>
   <v>       0.00160000 </v>
   <v>       0.00160000 </v>
   <v>       0.00160000 </v>
   <v>       0.00160000 </v>
   <v>       0.00160000 </v>
   <v>       0.00160000 </v>
   <v>       0.00160000 </v>
   <v>       0.00160000 </v>
   <v>       0.00160000 </v>
   <v>       0.00160000 </v>
   <v>       0.00160000 </v>
   <v>       0.00160000 </v>
   <v>       0.00160000 </v>
   <v>       0.00160000 </v>
   <v>       0.00160000 </v>
   <v>       0.00160000 </v>
   <v>       0.00160000 </v>
   <v>       0.00160000 </v>
   <v>       0.00160000 </v>
   <v>       0.00160000 </v>
   <v>       0.00160000 </v>
   <v>       0.00160000 </v>
   <v>       0.00160000 </v>
   <v>       0.00160000 </v>
   <v>       0.00160000 </v>
   <v>       0.00160000 </v>
   <v>       0.00160000 </v>
   <v>       0.00160000 </v>
   <v>       0.00160000 </v>
   <v>       0.00160000 </v>
   <v>       0.00160000 </v>
   <v>       0.00160000 </v>
   <v>       0.00160000 </v>
   <v>       0.00160000 </v>
   <v>       0.00160000 </v>
   <v>       0.00160000 </v>
   <v>       0.00160000 </v>
   <v>       0.00160000 </v>
   <v>       0.00160000 </v>
   <v>       0.00160000 </v>
   <v>       0.00160000 </v>
   <v>       0.00160000 </v>
   <v>       0.00160000 </v>
   <v>       0.00160000 </v>
   <v>       0.00160000 </v>
   <v>       0.00160000 </v>
   <v>       0.00160000 </v>
   <v>       0.00160000 </v>
   <v>       0.00160000 </v>
   <v>       0.00160000 </v>
   <v>       0.00160000 </v>
   <v>       0.00160000 </v>
   <v>       0.00160000 </v>
   <v>       0.00160000 </v>
   <v>       0.00160000 </v>
   <v>       0.00160000 </v>
   <v>       0.00160000 </v>
   <v>       0.00160000 </v>
   <v>       0.00160000 </v>
   <v>       0.00160000 </v>
   <v>       0.00160000 </v>
   <v>       0.00160000 </v>
   <v>       0.00160000 </v>
   <v>       0.00160000 </v>
   <v>       0.00160000 </v>
   <v>       0.00160000 </v>
   <v>       0.00160000 </v>
   <v>       0.00160000 </v>
   <v>       0.00160000 </v>
   <v>       0.00160000 </v>
   <v>       0.00160000 </v>
   <v>       0.00160000 </v>
   <v>       0.00160000 </v>
   <v>       0.00160000 </v>
   <v>       0.00160000 </v>
   <v>       0.00160000 </v>
   <v>       0.00160000 </v>
   <v>       0.00160000 </v>
   <v>       0.00160000 </v>
   <v>       0.00160000 </v>
   <v>       0.00160000 </v>
   <v>       0.00160000 </v>
   <v>       0.00160000 </v>
   <v>       0.00160000 </v>
   <v>       0.00160000 </v>
   <v>       0.00160000 </v>
   <v>       0.00160000 </v>
   <v>       0.00160000 </v>
   <v>       0.00160000 </v>
   <v>       0.00160000 </v>
   <v>       0.00160000 </v>
   <v>       0.00160000 </v>
   <v>       0.00160000 </v>
   <v>       0.00160000 </v>
   <v>       0.00160000 </v>
   <v>       0.00160000 </v>
   <v>       0.00160000 </v>
   <v>       0.00160000 </v>
   <v>       0.00160000 </v>
   <v>       0.00160000 </v>
   <v>       0.00160000 </v>
   <v>       0.00160000 </v>
   <v>       0.00160000 </v>
   <v>       0.00160000 </v>
  </varray>
  <varray name="tetrahedronlist"  type="int" >
   <v type="int" >        1        2       26       26       27 </v>
   <v type="int" >        1        1        2       26       26 </v>
   <v type="int" >        1        1        1        2       26 </v>
   <v type="int" >        1        2       26       27       27 </v>
   <v type="int" >        1        2        2       26       27 </v>
   <v type="int" >        1        1        2        2       26 </v>
   <v type="int" >        1        3       27       27       28 </v>
   <v type="int" >        1        2        3       27       27 </v>
   <v type="int" >        1        2        2        3       27 </v>
   <v type="int" >        1        3       27       28       28 </v>
   <v type="int" >        1        3        3       27       28 </v>
   <v type="int" >        1        2        3        3       27 </v>
   <v type="int" >        1        4       28       28       29 </v>
   <v type="int" >        1        3        4       28       28 </v>
   <v type="int" >        1        3        3        4       28 </v>
   <v type="int" >        1        4       28       29       29 </v>
   <v type="int" >        1        4        4       28       29 </v>
   <v type="int" >        1        3        4        4       28 </v>
   <v type="int" >        1        5       29       29       30 </v>
   <v type="int" >        1        4        5       29       29 </v>
   <v type="int" >        1        4        4        5       29 </v>
   <v type="int" >        1        5       29       30       30 </v>
   <v type="int" >        1        5        5       29       30 </v>
   <v type="int" >        1        4        5        5       29 </v>
   <v type="int" >        1        6       30       30       31 </v>
   <v type="int" >        1        5        6       30       30 </v>
   <v type="int" >        1        5        5        6       30 </v>
   <v type="int" >        1        6       30       31       31 </v>
   <v type="int" >        1        6        6       30       31 </v>
   <v type="int" >        1        5        6        6       30 </v>
   <v type="int" >        1        7       31       31       32 </v>
   <v type="int" >        1        6        7       31       31 </v>
   <v type="int" >        1        6        6        7       31 </v>
   <v type="int" >        1        7       31       32       32 </v>
   <v type="int" >        1        7        7       31       32 </v>
   <v type="int" >        1        6        7        7       31 </v>
   <v type="int" >        1        8       32       32       33 </v>
   <v type="int" >        1        7        8       32       32 </v>
   <v type="int" >        1        7        7        8       32 </v>
   <v type="int" >        1        8       32       33       33 </v>
   <v type="int" >        1        8        8       32       33 </v>
   <v type="int" >        1        7        8        8       32 </v>
   <v type="int" >        1        9       33       33       34 </v>
   <v type="int" >        1        8        9       33       33 </v>
   <v type="int" >        1        8        8        9       33 </v>
   <v type="int" >        1        9       33       34       34 </v>
   <v type="int" >        1        9        9       33       34 </v>
   <v type="int" >        1        8        9        9       33 </v>
   <v type="int" >        1       10       34       34       35 </v>
   <v type="int" >        1        9       10       34       34 </v>
   <v type="int" >        1        9        9       10       34 </v>
   <v type="int" >        1       10       34       35       35 </v>
   <v type="int" >        1       10       10       34       35 </v>
   <v type="int" >        1        9       10       10       34 </v>
   <v type="int" >        1       11       35       35       36 </v>
   <v type="int" >        1       10       11       35       35 </v>
   <v type="int" >        1       10       10       11       35 </v>
   <v type="int" >        1       11       35       36       36 </v>
   <v type="int" >        1       11       11       35       36 </v>
   <v type="int" >        1       10       11       11       35 </v>
   <v type="int" >        1       12       36       36       37 </v>
   <v type="int" >        1       11       12       36       36 </v>
   <v type="int" >        1       11       11       12       36 </v>
   <v type="int" >        1       12       36       37       37 </v>
   <v type="int" >        1       12       12       36       37 </v>
   <v type="int" >        1       11       12       12       36 </v>
   <v type="int" >        1       13       37       37       38 </v>
   <v type="int" >        1       12       13       37       37 </v>
   <v type="int" >        1       12       12       13       37 </v>
   <v type="int" >        1       13       37       38       38 </v>
   <v type="int" >        1       13       13       37       38 </v>
   <v type="int" >        1       12       13       13       37 </v>
   <v type="int" >        1       14       38       38       39 </v>
   <v type="int" >        1       13       14       38       38 </v>
   <v type="int" >        1       13       13       14       38 </v>
   <v type="int" >        1       14       38       39       39 </v>
   <v type="int" >        1       14       14       38       39 </v>
   <v type="int" >        1       13       14       14       38 </v>
   <v type="int" >        1       15       39       39       40 </v>
   <v type="int" >        1       14       15       39       39 </v>
   <v type="int" >        1       14       14       15       39 </v>
   <v type="int" >        1       15       39       40       40 </v>
   <v type="int" >        1       15       15       39       40 </v>
   <v type="int" >        1       14       15       15       39 </v>
   <v type="int" >        1       16       40       40       41 </v>
   <v type="int" >        1       15       16       40       40 </v>
   <v type="int" >        1       15       15       16       40 </v>
   <v type="int" >        1       16       40       41       41 </v>
   <v type="int" >        1       16       16       40       41 </v>
   <v type="int" >        1       15       16       16       40 </v>
   <v type="int" >        1       17       41       41       42 </v>
   <v type="int" >        1       16       17       41       41 </v>
   <v type="int" >        1       16       16       17       41 </v>
   <v type="int" >        1       17       41       42       42 </v>
   <v type="int" >        1       17       17       41       42 </v>
   <v type="int" >        1       16       17       17       41 </v>
   <v type="int" >        1       18       42       42       43 </v>
   <v type="int" >        1       17       18       42       42 </v>
   <v type="int" >        1       17       17       18       42 </v>
   <v type="int" >        1       18       42       43       43 </v>
   <v type="int" >        1       18       18       42       43 </v>
   <v type="int" >        1       17       18       18       42 </v>
   <v type="int" >        1       19       43       43       44 </v>
   <v type="int" >        1       18       19       43       43 </v>
   <v type="int" >        1       18       18       19       43 </v>
   <v type="int" >        1       19       43       44       44 </v>
   <v type="int" >        1       19       19       43       44 </v>
   <v type="int" >        1       18       19       19       43 </v>
   <v type="int" >        1       20       44       44       45 </v>
   <v type="int" >        1       19       20       44       44 </v>
   <v type="int" >        1       19       19       20       44 </v>
   <v type="int" >        1       20       44       45       45 </v>
   <v type="int" >        1       20       20       44       45 </v>
   <v type="int" >        1       19       20       20       44 </v>
   <v type="int" >        1       21       45       45       46 </v>
   <v type="int" >        1       20       21       45       45 </v>
   <v type="int" >        1       20       20       21       45 </v>
   <v type="int" >        1       21       45       46       46 </v>
   <v type="int" >        1       21       21       45       46 </v>
   <v type="int" >        1       20       21       21       45 </v>
   <v type="int" >        1       22       46       46       47 </v>
   <v type="int" >        1       21       22       46       46 </v>
   <v type="int" >        1       21       21       22       46 </v>
   <v type="int" >        1       22       46       47       47 </v>
   <v type="int" >        1       22       22       46       47 </v>
   <v type="int" >        1       21       22       22       46 </v>
   <v type="int" >        1       23       47       47       48 </v>
   <v type="int" >        1       22       23       47       47 </v>
   <v type="int" >        1       22       22       23       47 </v>
   <v type="int" >        1       23       47       48       48 </v>
   <v type="int" >        1       23       23       47       48 </v>
   <v type="int" >        1       22       23       23       47 </v>
   <v type="int" >        1       24       48       48       49 </v>
   <v type="int" >        1       23       24       48       48 </v>
   <v type="int" >        1       23       23       24       48 </v>
   <v type="int" >        1       24       48       49       49 </v>
   <v type="int" >        1       24       24       48       49 </v>
   <v type="int" >        1       23       24       24       48 </v>
   <v type="int" >        1       25       49       49       50 </v>
   <v type="int" >        1       24       25       49       49 </v>
   <v type="int" >        1       24       24       25       49 </v>
   <v type="int" >        1       25       49       50       50 </v>
   <v type="int" >        1       25       25       49       50 </v>
   <v type="int" >        1       24       25       25       49 </v>
   <v type="int" >        1        1       26       50       50 </v>
   <v type="int" >        1        1       25       50       50 </v>
   <v type="int" >        1        1       25       25       50 </v>
   <v type="int" >        1        1       26       26       50 </v>
   <v type="int" >        1        1        1       26       50 </v>
   <v type="int" >        1        1        1       25       50 </v>
   <v type="int" >        1       27       51       51       52 </v>
   <v type="int" >        1       26       27       51       51 </v>
   <v type="int" >        1       26       26       27       51 </v>
   <v type="int" >        1       27       51       52       52 </v>
   <v type="int" >        1       27       27       51       52 </v>
   <v type="int" >        1       26       27       27       51 </v>
   <v type="int" >        1       28       52       52       53 </v>
   <v type="int" >        1       27       28       52       52 </v>
   <v type="int" >        1       27       27       28       52 </v>
   <v type="int" >        1       28       52       53       53 </v>
   <v type="int" >        1       28       28       52       53 </v>
   <v type="int" >        1       27       28       28       52 </v>
   <v type="int" >        1       29       53       53       54 </v>
   <v type="int" >        1       28       29       53       53 </v>
   <v type="int" >        1       28       28       29       53 </v>
   <v type="int" >        1       29       53       54       54 </v>
   <v type="int" >        1       29       29       53       54 </v>
   <v type="int" >        1       28       29       29       53 </v>
   <v type="int" >        1       30       54       54       55 </v>
   <v type="int" >        1       29       30       54       54 </v>
   <v type="int" >        1       29       29       30       54 </v>
   <v type="int" >        1       30       54       55       55 </v>
   <v type="int" >        1       30       30       54       55 </v>
   <v type="int" >        1       29       30       30       54 </v>
   <v type="int" >        1       31       55       55       56 </v>
   <v type="int" >        1       30       31       55       55 </v>
   <v type="int" >        1       30       30       31       55 </v>
   <v type="int" >        1       31       55       56       56 </v>
   <v type="int" >        1       31       31       55       56 </v>
   <v type="int" >        1       30       31       31       55 </v>
   <v type="int" >        1       32       56       56       57 </v>
   <v type="int" >        1       31       32       56       56 </v>
   <v type="int" >        1       31       31       32       56 </v>
   <v type="int" >        1       32       56       57       57 </v>
   <v type="int" >        1       32       32       56       57 </v>
   <v type="int" >        1       31       32       32       56 </v>
   <v type="int" >        1       33       57       57       58 </v>
   <v type="int" >        1       32       33       57       57 </v>
   <v type="int" >        1       32       32       33       57 </v>
   <v type="int" >        1       33       57       58       58 </v>
   <v type="int" >        1       33       33       57       58 </v>
   <v type="int" >        1       32       33       33       57 </v>
   <v type="int" >        1       34       58       58       59 </v>
   <v type="int" >        1       33       34       58       58 </v>
   <v type="int" >        1       33       33       34       58 </v>
   <v type="int" >        1       34       58       59       59 </v>
   <v type="int" >        1       34       34       58       59 </v>
   <v type="int" >        1       33       34       34       58 </v>
   <v type="int" >        1       35       59       59       60 </v>
   <v type="int" >        1       34       35       59       59 </v>
   <v type="int" >        1       34       34       35       59 </v>
   <v type="int" >        1       35       59       60       60 </v>
   <v type="int" >        1       35       35       59       60 </v>
   <v type="int" >        1       34       35       35       59 </v>
   <v type="int" >        1       36       60       60       61 </v>
   <v type="int" >        1       35       36       60       60 </v>
   <v type="int" >        1       35       35       36       60 </v>
   <v type="int" >        1       36       60       61       61 </v>
   <v type="int" >        1       36       36       60       61 </v>
   <v type="int" >        1       35       36       36       60 </v>
   <v type="int" >        1       37       61       61       62 </v>
   <v type="int" >        1       36       37       61       61 </v>
   <v type="int" >        1       36       36       37       61 </v>
   <v type="int" >        1       37       61       62       62 </v>
   <v type="int" >        1       37       37       61       62 </v>
   <v type="int" >        1       36       37       37       61 </v>
   <v type="int" >        1       38       62       62       63 </v>
   <v type="int" >        1       37       38       62       62 </v>
   <v type="int" >        1       37       37       38       62 </v>
   <v type="int" >        1       38       62       63       63 </v>
   <v type="int" >        1       38       38       62       63 </v>
   <v type="int" >        1       37       38       38       62 </v>
   <v type="int" >        1       39       63       63       64 </v>
   <v type="int" >        1       38       39       63       63 </v>
   <v type="int" >        1       38       38       39       63 </v>
   <v type="int" >        1       39       63       64       64 </v>
   <v type="int" >        1       39       39       63       64 </v>
   <v type="int" >        1       38       39       39       63 </v>
   <v type="int" >        1       40       64       64       65 </v>
   <v type="int" >        1       39       40       64       64 </v>
   <v type="int" >        1       39       39       40       64 </v>
   <v type="int" >        1       40       64       65       65 </v>
   <v type="int" >        1       40       40       64       65 </v>
   <v type="int" >        1       39       40       40       64 </v>
   <v type="int" >        1       41       65       65       66 </v>
   <v type="int" >        1       40       41       65       65 </v>
   <v type="int" >        1       40       40       41       65 </v>
   <v type="int" >        1       41       65       66       66 </v>
   <v type="int" >        1       41       41       65       66 </v>
   <v type="int" >        1       40       41       41       65 </v>
   <v type="int" >        1       42       66       66       67 </v>
   <v type="int" >        1       41       42       66       66 </v>
   <v type="int" >        1       41       41       42       66 </v>
   <v type="int" >        1       42       66       67       67 </v>
   <v type="int" >        1       42       42       66       67 </v>
   <v type="int" >        1       41       42       42       66 </v>
   <v type="int" >        1       43       67       67       68 </v>
   <v type="int" >        1       42       43       67       67 </v>
   <v type="int" >        1       42       42       43       67 </v>
[...]
   <v type="int" >        1        6        7      607      607 </v>
   <v type="int" >        1        6      606      607      607 </v>
   <v type="int" >        1        7        7        8      608 </v>
   <v type="int" >        1        7        7      607      608 </v>
   <v type="int" >        1        7      607      607      608 </v>
   <v type="int" >        1        7        8        8      608 </v>
   <v type="int" >        1        7        8      608      608 </v>
   <v type="int" >        1        7      607      608      608 </v>
   <v type="int" >        1        8        8        9      609 </v>
   <v type="int" >        1        8        8      608      609 </v>
   <v type="int" >        1        8      608      608      609 </v>
   <v type="int" >        1        8        9        9      609 </v>
   <v type="int" >        1        8        9      609      609 </v>
   <v type="int" >        1        8      608      609      609 </v>
   <v type="int" >        1        9        9       10      610 </v>
   <v type="int" >        1        9        9      609      610 </v>
   <v type="int" >        1        9      609      609      610 </v>
   <v type="int" >        1        9       10       10      610 </v>
   <v type="int" >        1        9       10      610      610 </v>
   <v type="int" >        1        9      609      610      610 </v>
   <v type="int" >        1       10       10       11      611 </v>
   <v type="int" >        1       10       10      610      611 </v>
   <v type="int" >        1       10      610      610      611 </v>
   <v type="int" >        1       10       11       11      611 </v>
   <v type="int" >        1       10       11      611      611 </v>
   <v type="int" >        1       10      610      611      611 </v>
   <v type="int" >        1       11       11       12      612 </v>
   <v type="int" >        1       11       11      611      612 </v>
   <v type="int" >        1       11      611      611      612 </v>
   <v type="int" >        1       11       12       12      612 </v>
   <v type="int" >        1       11       12      612      612 </v>
   <v type="int" >        1       11      611      612      612 </v>
   <v type="int" >        1       12       12       13      613 </v>
   <v type="int" >        1       12       12      612      613 </v>
   <v type="int" >        1       12      612      612      613 </v>
   <v type="int" >        1       12       13       13      613 </v>
   <v type="int" >        1       12       13      613      613 </v>
   <v type="int" >        1       12      612      613      613 </v>
   <v type="int" >        1       13       13       14      614 </v>
   <v type="int" >        1       13       13      613      614 </v>
   <v type="int" >        1       13      613      613      614 </v>
   <v type="int" >        1       13       14       14      614 </v>
   <v type="int" >        1       13       14      614      614 </v>
   <v type="int" >        1       13      613      614      614 </v>
   <v type="int" >        1       14       14       15      615 </v>
   <v type="int" >        1       14       14      614      615 </v>
   <v type="int" >        1       14      614      614      615 </v>
   <v type="int" >        1       14       15       15      615 </v>
   <v type="int" >        1       14       15      615      615 </v>
   <v type="int" >        1       14      614      615      615 </v>
   <v type="int" >        1       15       15       16      616 </v>
   <v type="int" >        1       15       15      615      616 </v>
   <v type="int" >        1       15      615      615      616 </v>
   <v type="int" >        1       15       16       16      616 </v>
   <v type="int" >        1       15       16      616      616 </v>
   <v type="int" >        1       15      615      616      616 </v>
   <v type="int" >        1       16       16       17      617 </v>
   <v type="int" >        1       16       16      616      617 </v>
   <v type="int" >        1       16      616      616      617 </v>
   <v type="int" >        1       16       17       17      617 </v>
   <v type="int" >        1       16       17      617      617 </v>
   <v type="int" >        1       16      616      617      617 </v>
   <v type="int" >        1       17       17       18      618 </v>
   <v type="int" >        1       17       17      617      618 </v>
   <v type="int" >        1       17      617      617      618 </v>
   <v type="int" >        1       17       18       18      618 </v>
   <v type="int" >        1       17       18      618      618 </v>
   <v type="int" >        1       17      617      618      618 </v>
   <v type="int" >        1       18       18       19      619 </v>
   <v type="int" >        1       18       18      618      619 </v>
   <v type="int" >        1       18      618      618      619 </v>
   <v type="int" >        1       18       19       19      619 </v>
   <v type="int" >        1       18       19      619      619 </v>
   <v type="int" >        1       18      618      619      619 </v>
   <v type="int" >        1       19       19       20      620 </v>
   <v type="int" >        1       19       19      619      620 </v>
   <v type="int" >        1       19      619      619      620 </v>
   <v type="int" >        1       19       20       20      620 </v>
   <v type="int" >        1       19       20      620      620 </v>
   <v type="int" >        1       19      619      620      620 </v>
   <v type="int" >        1       20       20       21      621 </v>
   <v type="int" >        1       20       20      620      621 </v>
   <v type="int" >        1       20      620      620      621 </v>
   <v type="int" >        1       20       21       21      621 </v>
   <v type="int" >        1       20       21      621      621 </v>
   <v type="int" >        1       20      620      621      621 </v>
   <v type="int" >        1       21       21       22      622 </v>
   <v type="int" >        1       21       21      621      622 </v>
   <v type="int" >        1       21      621      621      622 </v>
   <v type="int" >        1       21       22       22      622 </v>
   <v type="int" >        1       21       22      622      622 </v>
   <v type="int" >        1       21      621      622      622 </v>
   <v type="int" >        1       22       22       23      623 </v>
   <v type="int" >        1       22       22      622      623 </v>
   <v type="int" >        1       22      622      622      623 </v>
   <v type="int" >        1       22       23       23      623 </v>
   <v type="int" >        1       22       23      623      623 </v>
   <v type="int" >        1       22      622      623      623 </v>
   <v type="int" >        1       23       23       24      624 </v>
   <v type="int" >        1       23       23      623      624 </v>
   <v type="int" >        1       23      623      623      624 </v>
   <v type="int" >        1       23       24       24      624 </v>
   <v type="int" >        1       23       24      624      624 </v>
   <v type="int" >        1       23      623      624      624 </v>
   <v type="int" >        1       24       24       25      625 </v>
   <v type="int" >        1       24       24      624      625 </v>
   <v type="int" >        1       24      624      624      625 </v>
   <v type="int" >        1       24       25       25      625 </v>
   <v type="int" >        1       24       25      625      625 </v>
   <v type="int" >        1       24      624      625      625 </v>
   <v type="int" >        1        1       25       25      601 </v>
   <v type="int" >        1       25       25      601      625 </v>
   <v type="int" >        1       25      601      625      625 </v>
   <v type="int" >        1        1        1       25      601 </v>
   <v type="int" >        1        1       25      601      601 </v>
   <v type="int" >        1       25      601      601      625 </v>
  </varray>
  <i name="volumeweight">      0.00026667 </i>
 </kpoints>
 <parameters>
  <separator name="general" >
   <i type="string" name="SYSTEM">unknown system</i>
   <i type="logical" name="LCOMPAT"> F  </i>
  </separator>
  <separator name="electronic" >
   <i type="string" name="PREC">accura</i>
   <i name="ENMAX">    330.00000000</i>
   <i name="ENAUG">    519.42400000</i>
   <i name="EDIFF">      0.00000010</i>
   <i type="int" name="IALGO">    38</i>
   <i type="int" name="IWAVPR">    10</i>
   <i type="int" name="NBANDS">    64</i>
   <i type="int" name="NBANDSLOW">    -1</i>
   <i type="int" name="NBANDSHIGH">    -1</i>
   <i name="NELECT">     24.00000000</i>
   <i type="int" name="TURBO">     0</i>
   <i type="int" name="IRESTART">     0</i>
   <i type="int" name="NREBOOT">     0</i>
   <i type="int" name="NMIN">     0</i>
   <i name="EREF">      0.00000000</i>
   <separator name="electronic smearing" >
    <i type="int" name="ISMEAR">    -5</i>
    <i name="SIGMA">      0.05000000</i>
    <i name="KSPACING">      0.50000000</i>
    <i type="logical" name="KGAMMA"> T  </i>
    <i type="logical" name="KBLOWUP"> F  </i>
   </separator>
   <separator name="electronic projectors" >
    <i type="logical" name="LREAL"> F  </i>
    <v name="ROPT">      0.00000000      0.00000000      0.00000000</v>
    <i type="int" name="LMAXPAW">  -100</i>
    <i type="int" name="LMAXMIX">     4</i>
    <i type="logical" name="NLSPLINE"> F  </i>
   </separator>
   <separator name="electronic startup" >
    <i type="int" name="ISTART">     1</i>
    <i type="int" name="ICHARG">     0</i>
    <i type="int" name="INIWAV">     1</i>
   </separator>
   <separator name="electronic spin" >
    <i type="int" name="ISPIN">     1</i>
    <i type="logical" name="LNONCOLLINEAR"> T  </i>
    <v name="MAGMOM">      0.00000000      0.00000000      5.00000000      0.00000000      0.00000000     -0.60000000      0.00000000      0.00000000     -0.60000000</v>
    <i name="NUPDOWN">     -1.00000000</i>
    <i type="logical" name="LSORBIT"> T  </i>
    <v name="SAXIS">      0.00000000      0.00000000      1.00000000</v>
    <i type="logical" name="LSPIRAL"> F  </i>
    <v name="QSPIRAL">      0.00000000      0.00000000      0.00000000</v>
    <i type="logical" name="LZEROZ"> F  </i>
   </separator>
   <separator name="electronic exchange-correlation" >
    <i type="logical" name="LASPH"> T  </i>
    <i type="logical" name="LMETAGGA"> F  </i>
   </separator>
   <separator name="electronic convergence" >
    <i type="int" name="NELM">     0</i>
    <i type="int" name="NELMDL">    -7</i>
    <i type="int" name="NELMIN">     6</i>
    <i name="ENINI">    330.00000000</i>
    <separator name="electronic convergence detail" >
     <i type="logical" name="LDIAG"> T  </i>
     <i type="logical" name="LSUBROT"> F  </i>
     <i name="WEIMIN">      0.00000000</i>
     <i name="EBREAK">      0.00000000</i>
     <i name="DEPER">      0.30000000</i>
     <i type="int" name="NRMM">     4</i>
     <i name="TIME">      0.40000000</i>
    </separator>
   </separator>
   <separator name="electronic mixer" >
    <i name="AMIX">      0.20000000</i>
    <i name="BMIX">      0.00001000</i>
    <i name="AMIN">      0.10000000</i>
    <i name="AMIX_MAG">      0.80000000</i>
    <i name="BMIX_MAG">      0.00001000</i>
    <separator name="electronic mixer details" >
     <i type="int" name="IMIX">     4</i>
     <i type="logical" name="MIXFIRST"> F  </i>
     <i type="int" name="MAXMIX">   -45</i>
     <i name="WC">    100.00000000</i>
     <i type="int" name="INIMIX">     1</i>
     <i type="int" name="MIXPRE">     1</i>
     <i type="int" name="MREMOVE">     5</i>
    </separator>
   </separator>
   <separator name="electronic dipolcorrection" >
    <i type="logical" name="LDIPOL"> T  </i>
    <i type="logical" name="LMONO"> F  </i>
    <i type="int" name="IDIPOL">     3</i>
    <i name="EPSILON">      1.00000000</i>
    <v name="DIPOL">   -100.00000000   -100.00000000   -100.00000000</v>
    <i name="EFIELD">      0.00000000</i>
   </separator>
  </separator>
  <separator name="grids" >
   <i type="int" name="NGX">    20</i>
   <i type="int" name="NGY">    20</i>
   <i type="int" name="NGZ">   192</i>
   <i type="int" name="NGXF">    40</i>
   <i type="int" name="NGYF">    40</i>
   <i type="int" name="NGZF">   384</i>
   <i type="logical" name="ADDGRID"> F  </i>
  </separator>
  <separator name="ionic" >
   <i type="int" name="NSW">     0</i>
   <i type="int" name="IBRION">    -1</i>
   <i type="int" name="MDALGO">     0</i>
   <i type="int" name="ISIF">     3</i>
   <i name="PSTRESS">      0.00000000</i>
   <i name="EDIFFG">     -0.00100000</i>
   <i type="int" name="NFREE">     0</i>
   <i name="POTIM">      0.50000000</i>
   <i name="SMASS">     -3.00000000</i>
   <i name="SCALEE">      1.00000000</i>
  </separator>
  <separator name="ionic md" >
   <i name="TEBEG">      0.00010000</i>
   <i name="TEEND">      0.00010000</i>
   <i type="int" name="NBLOCK">     1</i>
   <i type="int" name="KBLOCK">     1</i>
   <i type="int" name="NPACO">   256</i>
   <i name="APACO">     16.00000000</i>
  </separator>
  <separator name="symmetry" >
   <i type="int" name="ISYM">    -1</i>
   <i name="SYMPREC">      0.00001000</i>
  </separator>
  <separator name="dos" >
   <i type="int" name="LORBIT">    12</i>
   <v name="RWIGS">     -1.00000000     -1.00000000     -1.00000000</v>
   <i type="int" name="NEDOS">  2001</i>
   <i name="EMIN">     10.00000000</i>
   <i name="EMAX">    -10.00000000</i>
   <i name="EFERMI">      0.00000000</i>
  </separator>
  <separator name="writing" >
   <i type="int" name="NWRITE">     2</i>
   <i type="logical" name="LWAVE"> F  </i>
   <i type="logical" name="LDOWNSAMPLE"> F  </i>
   <i type="logical" name="LCHARG"> T  </i>
   <i type="logical" name="LPARD"> F  </i>
   <i type="logical" name="LVTOT"> F  </i>
   <i type="logical" name="LVHAR"> T  </i>
   <i type="logical" name="LELF"> F  </i>
   <i type="logical" name="LOPTICS"> F  </i>
   <v name="STM">      0.00000000      0.00000000      0.00000000      0.00000000      0.00000000      0.00000000      0.00000000</v>
  </separator>
  <separator name="performance" >
   <i type="int" name="NPAR">    64</i>
   <i type="int" name="NSIM">     4</i>
   <i type="int" name="NBLK">    -1</i>
   <i type="logical" name="LPLANE"> T  </i>
   <i type="logical" name="LSCALAPACK"> T  </i>
   <i type="logical" name="LSCAAWARE"> F  </i>
   <i type="logical" name="LSCALU"> F  </i>
   <i type="logical" name="LASYNC"> F  </i>
   <i type="logical" name="LORBITALREAL"> F  </i>
  </separator>
  <separator name="miscellaneous" >
   <i type="int" name="IDIOT">     3</i>
   <i type="int" name="PHON_NSTRUCT">    -1</i>
   <i type="logical" name="LMUSIC"> F  </i>
   <v name="POMASS">     51.99600000     32.06600000    127.60000000</v>
   <v name="DARWINR">      0.00000000      0.00000000      0.00000000</v>
   <v name="DARWINV">      1.00000000      1.00000000      1.00000000</v>
   <i type="logical" name="LCORR"> T  </i>
  </separator>
  <i type="logical" name="GGA_COMPAT"> T  </i>
  <i type="logical" name="LBERRY"> F  </i>
  <i type="int" name="ICORELEVEL">     0</i>
  <i type="logical" name="LDAU"> T  </i>
  <v type="int" name="LDAUTYPE">     2</v>
  <v type="int" name="LDAUL">     2</v>
  <v name="LDAUU">      3.00000000</v>
  <v name="LDAUJ">      0.00000000</v>
  <i type="int" name="LDAUPRINT">     2</i>
  <i type="int" name="I_CONSTRAINED_M">     0</i>
  <separator name="electronic exchange-correlation" >
   <i type="string" name="GGA">--</i>
   <i type="int" name="VOSKOWN">     1</i>
   <i type="logical" name="LHFCALC"> F  </i>
   <i type="string" name="PRECFOCK"></i>
   <i type="logical" name="LSYMGRAD"> F  </i>
   <i type="logical" name="LHFONE"> F  </i>
   <i type="logical" name="LRHFCALC"> F  </i>
   <i type="logical" name="LTHOMAS"> F  </i>
   <i type="logical" name="LMODELHF"> F  </i>
   <i type="logical" name="LFOCKACE"> F  </i>
   <i name="ENCUT4O">     -1.00000000</i>
   <i type="int" name="EXXOEP">     0</i>
   <i type="int" name="FOURORBIT">     0</i>
   <i name="AEXX">      0.00000000</i>
   <i name="HFALPHA">      0.00000000</i>
   <i name="MCALPHA">      0.00000000</i>
   <i name="ALDAX">      1.00000000</i>
   <i name="AGGAX">      1.00000000</i>
   <i name="ALDAC">      1.00000000</i>
   <i name="AGGAC">      1.00000000</i>
   <i type="int" name="NKREDX">     1</i>
   <i type="int" name="NKREDY">     1</i>
   <i type="int" name="NKREDZ">     1</i>
   <i type="logical" name="SHIFTRED"> F  </i>
   <i type="logical" name="ODDONLY"> F  </i>
   <i type="logical" name="EVENONLY"> F  </i>
   <i type="int" name="LMAXFOCK">     0</i>
   <i type="int" name="NMAXFOCKAE">     0</i>
   <i type="logical" name="LFOCKAEDFT"> F  </i>
   <i name="HFSCREEN">      0.00000000</i>
   <i name="HFSCREENC">      0.00000000</i>
   <i type="int" name="NBANDSGWLOW">     0</i>
  </separator>
  <separator name="vdW DFT" >
   <i type="logical" name="LUSE_VDW"> F  </i>
   <i name="Zab_VDW">     -0.84910000</i>
   <i name="PARAM1">      0.12340000</i>
   <i name="PARAM2">      1.00000000</i>
   <i name="PARAM3">      0.00000000</i>
  </separator>
  <separator name="model GW" >
   <i type="int" name="MODEL_GW">     0</i>
   <i name="MODEL_EPS0">     63.22537284</i>
   <i name="MODEL_ALPHA">      1.00000000</i>
  </separator>
  <separator name="linear response parameters" >
   <i type="logical" name="LEPSILON"> F  </i>
   <i type="logical" name="LRPA"> F  </i>
   <i type="logical" name="LNABLA"> F  </i>
   <i type="logical" name="LVEL"> F  </i>
   <i type="int" name="KINTER">     0</i>
   <i name="CSHIFT">      0.10000000</i>
   <i name="OMEGAMAX">     -1.00000000</i>
   <i name="DEG_THRESHOLD">      0.00200000</i>
   <i name="RTIME">     -0.10000000</i>
   <i name="WPLASMAI">      0.00000000</i>
   <v name="DFIELD">      0.00000000      0.00000000      0.00000000</v>
   <v name="WPLASMA">      0.00000000      0.00000000      0.00000000      0.00000000      0.00000000      0.00000000      0.00000000      0.00000000      0.00000000</v>
  </separator>
  <separator name="orbital magnetization" >
   <i type="logical" name="NUCIND"> F  </i>
   <v name="MAGPOS">      0.00000000      0.00000000      0.00000000</v>
   <i type="logical" name="LNICSALL"> T  </i>
   <i type="logical" name="ORBITALMAG"> F  </i>
   <i type="logical" name="LMAGBLOCH"> F  </i>
   <i type="logical" name="LCHIMAG"> F  </i>
   <i type="logical" name="LGAUGE"> T  </i>
   <i type="int" name="MAGATOM">     0</i>
   <v name="MAGDIPOL">      0.00000000      0.00000000      0.00000000</v>
   <v name="AVECCONST">      0.00000000      0.00000000      0.00000000</v>
  </separator>
  <separator name="response functions" >
   <i type="logical" name="LFINITE_TEMPERATURE"> F  </i>
   <i type="logical" name="LADDER"> F  </i>
   <i type="logical" name="LRPAFORCE"> F  </i>
   <i type="logical" name="LFXC"> F  </i>
   <i type="logical" name="LHARTREE"> T  </i>
   <i type="int" name="IBSE">     0</i>
   <v type="int" name="KPOINT">    -1     0     0     0</v>
   <i type="logical" name="LTCTC"> F  </i>
   <i type="logical" name="LTCTE"> F  </i>
   <i type="logical" name="LTETE"> F  </i>
   <i type="logical" name="LTRIPLET"> F  </i>
   <i type="logical" name="LFXCEPS"> F  </i>
   <i type="logical" name="LFXHEG"> F  </i>
   <i type="int" name="NATURALO">     2</i>
   <i type="logical" name="LHOLEGF"> F  </i>
   <i type="logical" name="L2ORDER"> F  </i>
   <i type="logical" name="LDMP1"> F  </i>
   <i type="logical" name="LMP2LT"> F  </i>
   <i type="logical" name="LSMP2LT"> F  </i>
   <i type="logical" name="LGWLF"> F  </i>
   <i name="ENCUTGW">     -2.00000000</i>
   <i name="ENCUTGWSOFT">     -2.00000000</i>
   <i name="ENCUTLF">     -1.00000000</i>
   <i type="logical" name="LESF_SPLINES"> F  </i>
   <i type="int" name="LMAXMP2">    -1</i>
   <i name="SCISSOR">      0.00000000</i>
