 written on 25Dec2023 at 18:38:03 
         625           8
    0.073320    0.042331    0.000000   46.504319
   -0.073320   -0.042331    0.000000   46.504319
   -0.000000    0.084663    0.000000   46.504319
   -0.073320    0.042331    0.000000   46.504319
    0.000000   -0.084663    0.000000   46.504319
    0.073320   -0.042331    0.000000   46.504319
    0.000000    0.000000    0.202247   12.223787
    0.000000    0.000000   -0.202247   12.223787
   -0.073320   -0.042331    0.000000   46.504319
    0.073320    0.042331    0.000000   46.504319
   -0.073320    0.042331    0.000000   46.504319
   -0.000000    0.084663    0.000000   46.504319
    0.000000   -0.084663    0.000000   46.504319
    0.073320   -0.042331    0.000000   46.504319
    0.000000    0.000000    0.202247   12.223787
    0.000000    0.000000   -0.202247   12.223787
   -0.073320   -0.042331    0.000000   46.504319
    0.073320    0.042331    0.000000   46.504319
   -0.073320    0.042331    0.000000   46.504319
   -0.000000    0.084663    0.000000   46.504319
    0.000000   -0.084663    0.000000   46.504319
    0.073320   -0.042331    0.000000   46.504319
    0.000000    0.000000    0.202247   12.223787
    0.000000    0.000000   -0.202247   12.223787
   -0.073320   -0.042331    0.000000   46.504319
    0.073320    0.042331    0.000000   46.504319
   -0.073320    0.042331    0.000000   46.504319
   -0.000000    0.084663    0.000000   46.504319
    0.000000   -0.084663    0.000000   46.504319
    0.073320   -0.042331    0.000000   46.504319
    0.000000    0.000000    0.202247   12.223787
    0.000000    0.000000   -0.202247   12.223787
   -0.073320   -0.042331    0.000000   46.504319
    0.073320    0.042331    0.000000   46.504319
   -0.073320    0.042331    0.000000   46.504319
   -0.000000    0.084663    0.000000   46.504319
    0.000000   -0.084663    0.000000   46.504319
    0.073320   -0.042331    0.000000   46.504319
    0.000000    0.000000    0.202247   12.223787
    0.000000    0.000000   -0.202247   12.223787
   -0.073320   -0.042331    0.000000   46.504319
    0.073320    0.042331    0.000000   46.504319
   -0.073320    0.042331    0.000000   46.504319
   -0.000000    0.084663    0.000000   46.504319
    0.000000   -0.084663    0.000000   46.504319
    0.073320   -0.042331    0.000000   46.504319
    0.000000    0.000000    0.202247   12.223787
    0.000000    0.000000   -0.202247   12.223787
   -0.073320   -0.042331    0.000000   46.504319
    0.073320    0.042331    0.000000   46.504319
   -0.073320    0.042331    0.000000   46.504319
   -0.000000    0.084663    0.000000   46.504319
    0.000000   -0.084663    0.000000   46.504319
    0.073320   -0.042331    0.000000   46.504319
    0.000000    0.000000    0.202247   12.223787
    0.000000    0.000000   -0.202247   12.223787
   -0.073320   -0.042331    0.000000   46.504319
    0.073320    0.042331    0.000000   46.504319
   -0.073320    0.042331    0.000000   46.504319
   -0.000000    0.084663    0.000000   46.504319
    0.000000   -0.084663    0.000000   46.504319
    0.073320   -0.042331    0.000000   46.504319
    0.000000    0.000000    0.202247   12.223787
    0.000000    0.000000   -0.202247   12.223787
   -0.073320   -0.042331    0.000000   46.504319
    0.073320    0.042331    0.000000   46.504319
   -0.073320    0.042331    0.000000   46.504319
   -0.000000    0.084663    0.000000   46.504319
    0.000000   -0.084663    0.000000   46.504319
    0.073320   -0.042331    0.000000   46.504319
    0.000000    0.000000    0.202247   12.223787
    0.000000    0.000000   -0.202247   12.223787
   -0.073320   -0.042331    0.000000   46.504319
    0.073320    0.042331    0.000000   46.504319
   -0.073320    0.042331    0.000000   46.504319
   -0.000000    0.084663    0.000000   46.504319
    0.000000   -0.084663    0.000000   46.504319
    0.073320   -0.042331    0.000000   46.504319
    0.000000    0.000000    0.202247   12.223787
    0.000000    0.000000   -0.202247   12.223787
   -0.073320   -0.042331    0.000000   46.504319
    0.073320    0.042331    0.000000   46.504319
   -0.073320    0.042331    0.000000   46.504319
   -0.000000    0.084663    0.000000   46.504319
    0.000000   -0.084663    0.000000   46.504319
    0.073320   -0.042331    0.000000   46.504319
    0.000000    0.000000    0.202247   12.223787
    0.000000    0.000000   -0.202247   12.223787
   -0.073320   -0.042331    0.000000   46.504319
    0.073320    0.042331    0.000000   46.504319
   -0.073320    0.042331    0.000000   46.504319
   -0.000000    0.084663    0.000000   46.504319
    0.000000   -0.084663    0.000000   46.504319
    0.073320   -0.042331    0.000000   46.504319
    0.000000    0.000000    0.202247   12.223787
    0.000000    0.000000   -0.202247   12.223787
   -0.073320   -0.042331    0.000000   46.504319
   -0.073320    0.042331    0.000000   46.504319
   -0.000000    0.084663    0.000000   46.504319
    0.000000   -0.084663    0.000000   46.504319
    0.073320    0.042331    0.000000   46.504319
    0.073320   -0.042331    0.000000   46.504319
    0.000000    0.000000    0.202247   12.223787
    0.000000    0.000000   -0.202247   12.223787
    0.073320    0.042331    0.000000   46.504319
   -0.000000    0.084663    0.000000   46.504319
    0.000000   -0.084663    0.000000   46.504319
    0.073320   -0.042331    0.000000   46.504319
   -0.073320   -0.042331    0.000000   46.504319
   -0.073320    0.042331    0.000000   46.504319
    0.000000    0.000000    0.202247   12.223787
    0.000000    0.000000   -0.202247   12.223787
   -0.073320   -0.042331    0.000000   46.504319
    0.073320    0.042331    0.000000   46.504319
   -0.073320    0.042331    0.000000   46.504319
   -0.000000    0.084663    0.000000   46.504319
    0.000000   -0.084663    0.000000   46.504319
    0.073320   -0.042331    0.000000   46.504319
    0.000000    0.000000    0.202247   12.223787
    0.000000    0.000000   -0.202247   12.223787
   -0.073320   -0.042331    0.000000   46.504319
    0.073320    0.042331    0.000000   46.504319
   -0.073320    0.042331    0.000000   46.504319
   -0.000000    0.084663    0.000000   46.504319
    0.000000   -0.084663    0.000000   46.504319
    0.073320   -0.042331    0.000000   46.504319
    0.000000    0.000000    0.202247   12.223787
    0.000000    0.000000   -0.202247   12.223787
   -0.073320   -0.042331    0.000000   46.504319
    0.073320    0.042331    0.000000   46.504319
   -0.073320    0.042331    0.000000   46.504319
   -0.000000    0.084663    0.000000   46.504319
    0.000000   -0.084663    0.000000   46.504319
    0.073320   -0.042331    0.000000   46.504319
    0.000000    0.000000    0.202247   12.223787
    0.000000    0.000000   -0.202247   12.223787
   -0.073320   -0.042331    0.000000   46.504319
    0.073320    0.042331    0.000000   46.504319
   -0.073320    0.042331    0.000000   46.504319
   -0.000000    0.084663    0.000000   46.504319
    0.000000   -0.084663    0.000000   46.504319
    0.073320   -0.042331    0.000000   46.504319
    0.000000    0.000000    0.202247   12.223787
    0.000000    0.000000   -0.202247   12.223787
   -0.073320   -0.042331    0.000000   46.504319
    0.073320    0.042331    0.000000   46.504319
   -0.073320    0.042331    0.000000   46.504319
   -0.000000    0.084663    0.000000   46.504319
    0.000000   -0.084663    0.000000   46.504319
    0.073320   -0.042331    0.000000   46.504319
    0.000000    0.000000    0.202247   12.223787
    0.000000    0.000000   -0.202247   12.223787
   -0.073320   -0.042331    0.000000   46.504319
    0.073320    0.042331    0.000000   46.504319
   -0.073320    0.042331    0.000000   46.504319
   -0.000000    0.084663    0.000000   46.504319
    0.000000   -0.084663    0.000000   46.504319
    0.073320   -0.042331    0.000000   46.504319
    0.000000    0.000000    0.202247   12.223787
    0.000000    0.000000   -0.202247   12.223787
   -0.073320   -0.042331    0.000000   46.504319
    0.073320    0.042331    0.000000   46.504319
   -0.073320    0.042331    0.000000   46.504319
   -0.000000    0.084663    0.000000   46.504319
    0.000000   -0.084663    0.000000   46.504319
    0.073320   -0.042331    0.000000   46.504319
    0.000000    0.000000    0.202247   12.223787
    0.000000    0.000000   -0.202247   12.223787
   -0.073320   -0.042331    0.000000   46.504319
    0.073320    0.042331    0.000000   46.504319
   -0.073320    0.042331    0.000000   46.504319
   -0.000000    0.084663    0.000000   46.504319
    0.000000   -0.084663    0.000000   46.504319
    0.073320   -0.042331    0.000000   46.504319
    0.000000    0.000000    0.202247   12.223787
    0.000000    0.000000   -0.202247   12.223787
   -0.073320   -0.042331    0.000000   46.504319
    0.073320    0.042331    0.000000   46.504319
   -0.073320    0.042331    0.000000   46.504319
   -0.000000    0.084663    0.000000   46.504319
    0.000000   -0.084663    0.000000   46.504319
    0.073320   -0.042331    0.000000   46.504319
    0.000000    0.000000    0.202247   12.223787
    0.000000    0.000000   -0.202247   12.223787
   -0.073320   -0.042331    0.000000   46.504319
    0.073320    0.042331    0.000000   46.504319
   -0.073320    0.042331    0.000000   46.504319
   -0.000000    0.084663    0.000000   46.504319
    0.000000   -0.084663    0.000000   46.504319
    0.073320   -0.042331    0.000000   46.504319
    0.000000    0.000000    0.202247   12.223787
    0.000000    0.000000   -0.202247   12.223787
    0.073320    0.042331    0.000000   46.504319
   -0.073320   -0.042331    0.000000   46.504319
   -0.073320    0.042331    0.000000   46.504319
   -0.000000    0.084663    0.000000   46.504319
    0.073320   -0.042331    0.000000   46.504319
    0.000000   -0.084663    0.000000   46.504319
    0.000000    0.000000    0.202247   12.223787
    0.000000    0.000000   -0.202247   12.223787
    0.000000   -0.084663    0.000000   46.504319
    0.073320   -0.042331    0.000000   46.504319
    0.073320    0.042331    0.000000   46.504319
   -0.073320   -0.042331    0.000000   46.504319
   -0.000000    0.084663    0.000000   46.504319
   -0.073320    0.042331    0.000000   46.504319
    0.000000    0.000000    0.202247   12.223787
    0.000000    0.000000   -0.202247   12.223787
    0.000000   -0.084663    0.000000   46.504319
    0.073320   -0.042331    0.000000   46.504319
   -0.073320   -0.042331    0.000000   46.504319
    0.073320    0.042331    0.000000   46.504319
   -0.073320    0.042331    0.000000   46.504319
   -0.000000    0.084663    0.000000   46.504319
    0.000000    0.000000    0.202247   12.223787
    0.000000    0.000000   -0.202247   12.223787
    0.000000   -0.084663    0.000000   46.504319
    0.073320   -0.042331    0.000000   46.504319
   -0.073320   -0.042331    0.000000   46.504319
    0.073320    0.042331    0.000000   46.504319
   -0.073320    0.042331    0.000000   46.504319
   -0.000000    0.084663    0.000000   46.504319
    0.000000    0.000000    0.202247   12.223787
    0.000000    0.000000   -0.202247   12.223787
    0.000000   -0.084663    0.000000   46.504319
    0.073320   -0.042331    0.000000   46.504319
   -0.073320   -0.042331    0.000000   46.504319
    0.073320    0.042331    0.000000   46.504319
   -0.073320    0.042331    0.000000   46.504319
   -0.000000    0.084663    0.000000   46.504319
    0.000000    0.000000    0.202247   12.223787
    0.000000    0.000000   -0.202247   12.223787
    0.000000   -0.084663    0.000000   46.504319
    0.073320   -0.042331    0.000000   46.504319
   -0.073320   -0.042331    0.000000   46.504319
    0.073320    0.042331    0.000000   46.504319
   -0.073320    0.042331    0.000000   46.504319
   -0.000000    0.084663    0.000000   46.504319
    0.000000    0.000000    0.202247   12.223787
    0.000000    0.000000   -0.202247   12.223787
    0.000000   -0.084663    0.000000   46.504319
    0.073320   -0.042331    0.000000   46.504319
   -0.073320   -0.042331    0.000000   46.504319
    0.073320    0.042331    0.000000   46.504319
   -0.073320    0.042331    0.000000   46.504319
   -0.000000    0.084663    0.000000   46.504319
    0.000000    0.000000    0.202247   12.223787
    0.000000    0.000000   -0.202247   12.223787
    0.000000   -0.084663    0.000000   46.504319
    0.073320   -0.042331    0.000000   46.504319
   -0.073320   -0.042331    0.000000   46.504319
    0.073320    0.042331    0.000000   46.504319
   -0.073320    0.042331    0.000000   46.504319
   -0.000000    0.084663    0.000000   46.504319
    0.000000    0.000000    0.202247   12.223787
    0.000000    0.000000   -0.202247   12.223787
    0.000000   -0.084663    0.000000   46.504319
    0.073320   -0.042331    0.000000   46.504319
   -0.073320   -0.042331    0.000000   46.504319
    0.073320    0.042331    0.000000   46.504319
   -0.073320    0.042331    0.000000   46.504319
   -0.000000    0.084663    0.000000   46.504319
    0.000000    0.000000    0.202247   12.223787
    0.000000    0.000000   -0.202247   12.223787
    0.000000   -0.084663    0.000000   46.504319
    0.073320   -0.042331    0.000000   46.504319
   -0.073320   -0.042331    0.000000   46.504319
    0.073320    0.042331    0.000000   46.504319
   -0.073320    0.042331    0.000000   46.504319
   -0.000000    0.084663    0.000000   46.504319
    0.000000    0.000000    0.202247   12.223787
    0.000000    0.000000   -0.202247   12.223787
    0.000000   -0.084663    0.000000   46.504319
    0.073320   -0.042331    0.000000   46.504319
   -0.073320   -0.042331    0.000000   46.504319
    0.073320    0.042331    0.000000   46.504319
   -0.073320    0.042331    0.000000   46.504319
   -0.000000    0.084663    0.000000   46.504319
    0.000000    0.000000    0.202247   12.223787
    0.000000    0.000000   -0.202247   12.223787
    0.000000   -0.084663    0.000000   46.504319
    0.073320   -0.042331    0.000000   46.504319
   -0.073320   -0.042331    0.000000   46.504319
    0.073320    0.042331    0.000000   46.504319
   -0.073320    0.042331    0.000000   46.504319
   -0.000000    0.084663    0.000000   46.504319
    0.000000    0.000000    0.202247   12.223787
    0.000000    0.000000   -0.202247   12.223787
    0.000000   -0.084663    0.000000   46.504319
    0.073320   -0.042331    0.000000   46.504319
   -0.073320   -0.042331    0.000000   46.504319
    0.073320    0.042331    0.000000   46.504319
   -0.073320    0.042331    0.000000   46.504319
   -0.000000    0.084663    0.000000   46.504319
    0.000000    0.000000    0.202247   12.223787
    0.000000    0.000000   -0.202247   12.223787
    0.000000   -0.084663    0.000000   46.504319
   -0.073320   -0.042331    0.000000   46.504319
   -0.073320    0.042331    0.000000   46.504319
   -0.000000    0.084663    0.000000   46.504319
    0.073320   -0.042331    0.000000   46.504319
    0.073320    0.042331    0.000000   46.504319
    0.000000    0.000000    0.202247   12.223787
    0.000000    0.000000   -0.202247   12.223787
    0.000000   -0.084663    0.000000   46.504319
    0.073320   -0.042331    0.000000   46.504319
    0.073320    0.042331    0.000000   46.504319
   -0.000000    0.084663    0.000000   46.504319
   -0.073320   -0.042331    0.000000   46.504319
   -0.073320    0.042331    0.000000   46.504319
    0.000000    0.000000    0.202247   12.223787
    0.000000    0.000000   -0.202247   12.223787
    0.000000   -0.084663    0.000000   46.504319
    0.073320   -0.042331    0.000000   46.504319
   -0.073320   -0.042331    0.000000   46.504319
    0.073320    0.042331    0.000000   46.504319
   -0.073320    0.042331    0.000000   46.504319
   -0.000000    0.084663    0.000000   46.504319
    0.000000    0.000000    0.202247   12.223787
    0.000000    0.000000   -0.202247   12.223787
    0.000000   -0.084663    0.000000   46.504319
    0.073320   -0.042331    0.000000   46.504319
   -0.073320   -0.042331    0.000000   46.504319
    0.073320    0.042331    0.000000   46.504319
   -0.073320    0.042331    0.000000   46.504319
   -0.000000    0.084663    0.000000   46.504319
    0.000000    0.000000    0.202247   12.223787
    0.000000    0.000000   -0.202247   12.223787
    0.000000   -0.084663    0.000000   46.504319
    0.073320   -0.042331    0.000000   46.504319
   -0.073320   -0.042331    0.000000   46.504319
    0.073320    0.042331    0.000000   46.504319
   -0.073320    0.042331    0.000000   46.504319
   -0.000000    0.084663    0.000000   46.504319
    0.000000    0.000000    0.202247   12.223787
    0.000000    0.000000   -0.202247   12.223787
    0.000000   -0.084663    0.000000   46.504319
    0.073320   -0.042331    0.000000   46.504319
   -0.073320   -0.042331    0.000000   46.504319
    0.073320    0.042331    0.000000   46.504319
   -0.073320    0.042331    0.000000   46.504319
   -0.000000    0.084663    0.000000   46.504319
    0.000000    0.000000    0.202247   12.223787
    0.000000    0.000000   -0.202247   12.223787
    0.000000   -0.084663    0.000000   46.504319
    0.073320   -0.042331    0.000000   46.504319
   -0.073320   -0.042331    0.000000   46.504319
    0.073320    0.042331    0.000000   46.504319
   -0.073320    0.042331    0.000000   46.504319
   -0.000000    0.084663    0.000000   46.504319
    0.000000    0.000000    0.202247   12.223787
    0.000000    0.000000   -0.202247   12.223787
    0.000000   -0.084663    0.000000   46.504319
    0.073320   -0.042331    0.000000   46.504319
   -0.073320   -0.042331    0.000000   46.504319
    0.073320    0.042331    0.000000   46.504319
   -0.073320    0.042331    0.000000   46.504319
   -0.000000    0.084663    0.000000   46.504319
    0.000000    0.000000    0.202247   12.223787
    0.000000    0.000000   -0.202247   12.223787
    0.000000   -0.084663    0.000000   46.504319
    0.073320   -0.042331    0.000000   46.504319
   -0.073320   -0.042331    0.000000   46.504319
    0.073320    0.042331    0.000000   46.504319
   -0.073320    0.042331    0.000000   46.504319
   -0.000000    0.084663    0.000000   46.504319
    0.000000    0.000000    0.202247   12.223787
    0.000000    0.000000   -0.202247   12.223787
    0.000000   -0.084663    0.000000   46.504319
    0.073320   -0.042331    0.000000   46.504319
   -0.073320   -0.042331    0.000000   46.504319
    0.073320    0.042331    0.000000   46.504319
   -0.073320    0.042331    0.000000   46.504319
   -0.000000    0.084663    0.000000   46.504319
    0.000000    0.000000    0.202247   12.223787
    0.000000    0.000000   -0.202247   12.223787
    0.000000   -0.084663    0.000000   46.504319
    0.073320   -0.042331    0.000000   46.504319
   -0.073320   -0.042331    0.000000   46.504319
    0.073320    0.042331    0.000000   46.504319
   -0.073320    0.042331    0.000000   46.504319
   -0.000000    0.084663    0.000000   46.504319
    0.000000    0.000000    0.202247   12.223787
    0.000000    0.000000   -0.202247   12.223787
    0.000000   -0.084663    0.000000   46.504319
    0.073320   -0.042331    0.000000   46.504319
   -0.073320   -0.042331    0.000000   46.504319
    0.073320    0.042331    0.000000   46.504319
   -0.073320    0.042331    0.000000   46.504319
   -0.000000    0.084663    0.000000   46.504319
    0.000000    0.000000    0.202247   12.223787
    0.000000    0.000000   -0.202247   12.223787
    0.073320   -0.042331    0.000000   46.504319
    0.000000   -0.084663    0.000000   46.504319
    0.073320    0.042331    0.000000   46.504319
   -0.073320   -0.042331    0.000000   46.504319
   -0.073320    0.042331    0.000000   46.504319
   -0.000000    0.084663    0.000000   46.504319
    0.000000    0.000000    0.202247   12.223787
    0.000000    0.000000   -0.202247   12.223787
    0.000000   -0.084663    0.000000   46.504319
    0.073320   -0.042331    0.000000   46.504319
    0.073320    0.042331    0.000000   46.504319
   -0.073320   -0.042331    0.000000   46.504319
   -0.000000    0.084663    0.000000   46.504319
   -0.073320    0.042331    0.000000   46.504319
    0.000000    0.000000    0.202247   12.223787
    0.000000    0.000000   -0.202247   12.223787
    0.000000   -0.084663    0.000000   46.504319
    0.073320   -0.042331    0.000000   46.504319
   -0.073320   -0.042331    0.000000   46.504319
    0.073320    0.042331    0.000000   46.504319
   -0.073320    0.042331    0.000000   46.504319
   -0.000000    0.084663    0.000000   46.504319
    0.000000    0.000000    0.202247   12.223787
    0.000000    0.000000   -0.202247   12.223787
    0.000000   -0.084663    0.000000   46.504319
    0.073320   -0.042331    0.000000   46.504319
   -0.073320   -0.042331    0.000000   46.504319
    0.073320    0.042331    0.000000   46.504319
   -0.073320    0.042331    0.000000   46.504319
   -0.000000    0.084663    0.000000   46.504319
    0.000000    0.000000    0.202247   12.223787
    0.000000    0.000000   -0.202247   12.223787
    0.000000   -0.084663    0.000000   46.504319
    0.073320   -0.042331    0.000000   46.504319
   -0.073320   -0.042331    0.000000   46.504319
    0.073320    0.042331    0.000000   46.504319
   -0.073320    0.042331    0.000000   46.504319
   -0.000000    0.084663    0.000000   46.504319
    0.000000    0.000000    0.202247   12.223787
    0.000000    0.000000   -0.202247   12.223787
    0.000000   -0.084663    0.000000   46.504319
    0.073320   -0.042331    0.000000   46.504319
   -0.073320   -0.042331    0.000000   46.504319
    0.073320    0.042331    0.000000   46.504319
   -0.073320    0.042331    0.000000   46.504319
   -0.000000    0.084663    0.000000   46.504319
    0.000000    0.000000    0.202247   12.223787
    0.000000    0.000000   -0.202247   12.223787
    0.000000   -0.084663    0.000000   46.504319
    0.073320   -0.042331    0.000000   46.504319
   -0.073320   -0.042331    0.000000   46.504319
    0.073320    0.042331    0.000000   46.504319
   -0.073320    0.042331    0.000000   46.504319
   -0.000000    0.084663    0.000000   46.504319
    0.000000    0.000000    0.202247   12.223787
    0.000000    0.000000   -0.202247   12.223787
    0.000000   -0.084663    0.000000   46.504319
    0.073320   -0.042331    0.000000   46.504319
   -0.073320   -0.042331    0.000000   46.504319
    0.073320    0.042331    0.000000   46.504319
   -0.073320    0.042331    0.000000   46.504319
   -0.000000    0.084663    0.000000   46.504319
    0.000000    0.000000    0.202247   12.223787
    0.000000    0.000000   -0.202247   12.223787
    0.000000   -0.084663    0.000000   46.504319
    0.073320   -0.042331    0.000000   46.504319
   -0.073320   -0.042331    0.000000   46.504319
    0.073320    0.042331    0.000000   46.504319
   -0.073320    0.042331    0.000000   46.504319
   -0.000000    0.084663    0.000000   46.504319
    0.000000    0.000000    0.202247   12.223787
    0.000000    0.000000   -0.202247   12.223787
    0.000000   -0.084663    0.000000   46.504319
    0.073320   -0.042331    0.000000   46.504319
   -0.073320   -0.042331    0.000000   46.504319
    0.073320    0.042331    0.000000   46.504319
   -0.073320    0.042331    0.000000   46.504319
   -0.000000    0.084663    0.000000   46.504319
    0.000000    0.000000    0.202247   12.223787
    0.000000    0.000000   -0.202247   12.223787
    0.000000   -0.084663    0.000000   46.504319
    0.073320   -0.042331    0.000000   46.504319
   -0.073320   -0.042331    0.000000   46.504319
    0.073320    0.042331    0.000000   46.504319
   -0.073320    0.042331    0.000000   46.504319
   -0.000000    0.084663    0.000000   46.504319
    0.000000    0.000000    0.202247   12.223787
    0.000000    0.000000   -0.202247   12.223787
    0.000000   -0.084663    0.000000   46.504319
    0.073320   -0.042331    0.000000   46.504319
   -0.073320   -0.042331    0.000000   46.504319
    0.073320    0.042331    0.000000   46.504319
   -0.073320    0.042331    0.000000   46.504319
   -0.000000    0.084663    0.000000   46.504319
    0.000000    0.000000    0.202247   12.223787
    0.000000    0.000000   -0.202247   12.223787
    0.000000   -0.084663    0.000000   46.504319
    0.073320   -0.042331    0.000000   46.504319
   -0.073320   -0.042331    0.000000   46.504319
    0.073320    0.042331    0.000000   46.504319
   -0.073320    0.042331    0.000000   46.504319
   -0.000000    0.084663    0.000000   46.504319
    0.000000    0.000000    0.202247   12.223787
    0.000000    0.000000   -0.202247   12.223787
    0.000000   -0.084663    0.000000   46.504319
   -0.073320   -0.042331    0.000000   46.504319
   -0.073320    0.042331    0.000000   46.504319
   -0.000000    0.084663    0.000000   46.504319
    0.073320   -0.042331    0.000000   46.504319
    0.073320    0.042331    0.000000   46.504319
    0.000000    0.000000    0.202247   12.223787
    0.000000    0.000000   -0.202247   12.223787
    0.000000   -0.084663    0.000000   46.504319
    0.073320   -0.042331    0.000000   46.504319
    0.073320    0.042331    0.000000   46.504319
   -0.000000    0.084663    0.000000   46.504319
   -0.073320   -0.042331    0.000000   46.504319
   -0.073320    0.042331    0.000000   46.504319
    0.000000    0.000000    0.202247   12.223787
    0.000000    0.000000   -0.202247   12.223787
    0.000000   -0.084663    0.000000   46.504319
    0.073320   -0.042331    0.000000   46.504319
   -0.073320   -0.042331    0.000000   46.504319
    0.073320    0.042331    0.000000   46.504319
   -0.073320    0.042331    0.000000   46.504319
   -0.000000    0.084663    0.000000   46.504319
    0.000000    0.000000    0.202247   12.223787
    0.000000    0.000000   -0.202247   12.223787
    0.000000   -0.084663    0.000000   46.504319
    0.073320   -0.042331    0.000000   46.504319
   -0.073320   -0.042331    0.000000   46.504319
    0.073320    0.042331    0.000000   46.504319
   -0.073320    0.042331    0.000000   46.504319
   -0.000000    0.084663    0.000000   46.504319
    0.000000    0.000000    0.202247   12.223787
    0.000000    0.000000   -0.202247   12.223787
    0.000000   -0.084663    0.000000   46.504319
    0.073320   -0.042331    0.000000   46.504319
   -0.073320   -0.042331    0.000000   46.504319
    0.073320    0.042331    0.000000   46.504319
   -0.073320    0.042331    0.000000   46.504319
   -0.000000    0.084663    0.000000   46.504319
    0.000000    0.000000    0.202247   12.223787
    0.000000    0.000000   -0.202247   12.223787
    0.000000   -0.084663    0.000000   46.504319
    0.073320   -0.042331    0.000000   46.504319
   -0.073320   -0.042331    0.000000   46.504319
    0.073320    0.042331    0.000000   46.504319
   -0.073320    0.042331    0.000000   46.504319
   -0.000000    0.084663    0.000000   46.504319
    0.000000    0.000000    0.202247   12.223787
    0.000000    0.000000   -0.202247   12.223787
    0.000000   -0.084663    0.000000   46.504319
    0.073320   -0.042331    0.000000   46.504319
   -0.073320   -0.042331    0.000000   46.504319
    0.073320    0.042331    0.000000   46.504319
   -0.073320    0.042331    0.000000   46.504319
   -0.000000    0.084663    0.000000   46.504319
    0.000000    0.000000    0.202247   12.223787
    0.000000    0.000000   -0.202247   12.223787
    0.000000   -0.084663    0.000000   46.504319
    0.073320   -0.042331    0.000000   46.504319
   -0.073320   -0.042331    0.000000   46.504319
    0.073320    0.042331    0.000000   46.504319
   -0.073320    0.042331    0.000000   46.504319
   -0.000000    0.084663    0.000000   46.504319
    0.000000    0.000000    0.202247   12.223787
    0.000000    0.000000   -0.202247   12.223787
    0.000000   -0.084663    0.000000   46.504319
    0.073320   -0.042331    0.000000   46.504319
   -0.073320   -0.042331    0.000000   46.504319
    0.073320    0.042331    0.000000   46.504319
   -0.073320    0.042331    0.000000   46.504319
   -0.000000    0.084663    0.000000   46.504319
    0.000000    0.000000    0.202247   12.223787
    0.000000    0.000000   -0.202247   12.223787
    0.000000   -0.084663    0.000000   46.504319
    0.073320   -0.042331    0.000000   46.504319
   -0.073320   -0.042331    0.000000   46.504319
    0.073320    0.042331    0.000000   46.504319
   -0.073320    0.042331    0.000000   46.504319
   -0.000000    0.084663    0.000000   46.504319
    0.000000    0.000000    0.202247   12.223787
    0.000000    0.000000   -0.202247   12.223787
    0.000000   -0.084663    0.000000   46.504319
    0.073320   -0.042331    0.000000   46.504319
   -0.073320   -0.042331    0.000000   46.504319
    0.073320    0.042331    0.000000   46.504319
   -0.073320    0.042331    0.000000   46.504319
   -0.000000    0.084663    0.000000   46.504319
    0.000000    0.000000    0.202247   12.223787
    0.000000    0.000000   -0.202247   12.223787
    0.000000   -0.084663    0.000000   46.504319
    0.073320   -0.042331    0.000000   46.504319
   -0.073320   -0.042331    0.000000   46.504319
    0.073320    0.042331    0.000000   46.504319
   -0.073320    0.042331    0.000000   46.504319
   -0.000000    0.084663    0.000000   46.504319
    0.000000    0.000000    0.202247   12.223787
    0.000000    0.000000   -0.202247   12.223787
    0.073320   -0.042331    0.000000   46.504319
    0.000000   -0.084663    0.000000   46.504319
    0.073320    0.042331    0.000000   46.504319
   -0.073320   -0.042331    0.000000   46.504319
   -0.073320    0.042331    0.000000   46.504319
   -0.000000    0.084663    0.000000   46.504319
    0.000000    0.000000    0.202247   12.223787
    0.000000    0.000000   -0.202247   12.223787
    0.000000   -0.084663    0.000000   46.504319
    0.073320   -0.042331    0.000000   46.504319
    0.073320    0.042331    0.000000   46.504319
   -0.073320   -0.042331    0.000000   46.504319
   -0.000000    0.084663    0.000000   46.504319
   -0.073320    0.042331    0.000000   46.504319
    0.000000    0.000000    0.202247   12.223787
    0.000000    0.000000   -0.202247   12.223787
    0.000000   -0.084663    0.000000   46.504319
    0.073320   -0.042331    0.000000   46.504319
   -0.073320   -0.042331    0.000000   46.504319
    0.073320    0.042331    0.000000   46.504319
   -0.073320    0.042331    0.000000   46.504319
   -0.000000    0.084663    0.000000   46.504319
    0.000000    0.000000    0.202247   12.223787
    0.000000    0.000000   -0.202247   12.223787
    0.000000   -0.084663    0.000000   46.504319
    0.073320   -0.042331    0.000000   46.504319
   -0.073320   -0.042331    0.000000   46.504319
    0.073320    0.042331    0.000000   46.504319
   -0.073320    0.042331    0.000000   46.504319
   -0.000000    0.084663    0.000000   46.504319
    0.000000    0.000000    0.202247   12.223787
    0.000000    0.000000   -0.202247   12.223787
    0.000000   -0.084663    0.000000   46.504319
    0.073320   -0.042331    0.000000   46.504319
   -0.073320   -0.042331    0.000000   46.504319
    0.073320    0.042331    0.000000   46.504319
   -0.073320    0.042331    0.000000   46.504319
   -0.000000    0.084663    0.000000   46.504319
    0.000000    0.000000    0.202247   12.223787
    0.000000    0.000000   -0.202247   12.223787
    0.000000   -0.084663    0.000000   46.504319
    0.073320   -0.042331    0.000000   46.504319
   -0.073320   -0.042331    0.000000   46.504319
    0.073320    0.042331    0.000000   46.504319
   -0.073320    0.042331    0.000000   46.504319
   -0.000000    0.084663    0.000000   46.504319
    0.000000    0.000000    0.202247   12.223787
    0.000000    0.000000   -0.202247   12.223787
    0.000000   -0.084663    0.000000   46.504319
    0.073320   -0.042331    0.000000   46.504319
   -0.073320   -0.042331    0.000000   46.504319
    0.073320    0.042331    0.000000   46.504319
   -0.073320    0.042331    0.000000   46.504319
   -0.000000    0.084663    0.000000   46.504319
    0.000000    0.000000    0.202247   12.223787
    0.000000    0.000000   -0.202247   12.223787
    0.000000   -0.084663    0.000000   46.504319
    0.073320   -0.042331    0.000000   46.504319
   -0.073320   -0.042331    0.000000   46.504319
    0.073320    0.042331    0.000000   46.504319
   -0.073320    0.042331    0.000000   46.504319
   -0.000000    0.084663    0.000000   46.504319
    0.000000    0.000000    0.202247   12.223787
    0.000000    0.000000   -0.202247   12.223787
    0.000000   -0.084663    0.000000   46.504319
    0.073320   -0.042331    0.000000   46.504319
   -0.073320   -0.042331    0.000000   46.504319
    0.073320    0.042331    0.000000   46.504319
   -0.073320    0.042331    0.000000   46.504319
   -0.000000    0.084663    0.000000   46.504319
    0.000000    0.000000    0.202247   12.223787
    0.000000    0.000000   -0.202247   12.223787
    0.000000   -0.084663    0.000000   46.504319
    0.073320   -0.042331    0.000000   46.504319
   -0.073320   -0.042331    0.000000   46.504319
    0.073320    0.042331    0.000000   46.504319
   -0.073320    0.042331    0.000000   46.504319
   -0.000000    0.084663    0.000000   46.504319
    0.000000    0.000000    0.202247   12.223787
    0.000000    0.000000   -0.202247   12.223787
    0.000000   -0.084663    0.000000   46.504319
    0.073320   -0.042331    0.000000   46.504319
   -0.073320   -0.042331    0.000000   46.504319
    0.073320    0.042331    0.000000   46.504319
   -0.073320    0.042331    0.000000   46.504319
   -0.000000    0.084663    0.000000   46.504319
    0.000000    0.000000    0.202247   12.223787
    0.000000    0.000000   -0.202247   12.223787
    0.000000   -0.084663    0.000000   46.504319
    0.073320   -0.042331    0.000000   46.504319
   -0.073320   -0.042331    0.000000   46.504319
    0.073320    0.042331    0.000000   46.504319
   -0.073320    0.042331    0.000000   46.504319
   -0.000000    0.084663    0.000000   46.504319
    0.000000    0.000000    0.202247   12.223787
    0.000000    0.000000   -0.202247   12.223787
    0.000000   -0.084663    0.000000   46.504319
    0.073320   -0.042331    0.000000   46.504319
   -0.073320   -0.042331    0.000000   46.504319
    0.073320    0.042331    0.000000   46.504319
   -0.073320    0.042331    0.000000   46.504319
   -0.000000    0.084663    0.000000   46.504319
    0.000000    0.000000    0.202247   12.223787
    0.000000    0.000000   -0.202247   12.223787
    0.000000   -0.084663    0.000000   46.504319
   -0.073320   -0.042331    0.000000   46.504319
   -0.073320    0.042331    0.000000   46.504319
   -0.000000    0.084663    0.000000   46.504319
    0.073320   -0.042331    0.000000   46.504319
    0.073320    0.042331    0.000000   46.504319
    0.000000    0.000000    0.202247   12.223787
    0.000000    0.000000   -0.202247   12.223787
    0.000000   -0.084663    0.000000   46.504319
    0.073320   -0.042331    0.000000   46.504319
    0.073320    0.042331    0.000000   46.504319
   -0.000000    0.084663    0.000000   46.504319
   -0.073320   -0.042331    0.000000   46.504319
   -0.073320    0.042331    0.000000   46.504319
    0.000000    0.000000    0.202247   12.223787
    0.000000    0.000000   -0.202247   12.223787
    0.000000   -0.084663    0.000000   46.504319
    0.073320   -0.042331    0.000000   46.504319
   -0.073320   -0.042331    0.000000   46.504319
    0.073320    0.042331    0.000000   46.504319
   -0.073320    0.042331    0.000000   46.504319
   -0.000000    0.084663    0.000000   46.504319
    0.000000    0.000000    0.202247   12.223787
    0.000000    0.000000   -0.202247   12.223787
    0.000000   -0.084663    0.000000   46.504319
    0.073320   -0.042331    0.000000   46.504319
   -0.073320   -0.042331    0.000000   46.504319
    0.073320    0.042331    0.000000   46.504319
   -0.073320    0.042331    0.000000   46.504319
   -0.000000    0.084663    0.000000   46.504319
    0.000000    0.000000    0.202247   12.223787
    0.000000    0.000000   -0.202247   12.223787
    0.000000   -0.084663    0.000000   46.504319
    0.073320   -0.042331    0.000000   46.504319
   -0.073320   -0.042331    0.000000   46.504319
    0.073320    0.042331    0.000000   46.504319
   -0.073320    0.042331    0.000000   46.504319
   -0.000000    0.084663    0.000000   46.504319
    0.000000    0.000000    0.202247   12.223787
    0.000000    0.000000   -0.202247   12.223787
    0.000000   -0.084663    0.000000   46.504319
    0.073320   -0.042331    0.000000   46.504319
   -0.073320   -0.042331    0.000000   46.504319
    0.073320    0.042331    0.000000   46.504319
   -0.073320    0.042331    0.000000   46.504319
   -0.000000    0.084663    0.000000   46.504319
    0.000000    0.000000    0.202247   12.223787
    0.000000    0.000000   -0.202247   12.223787
    0.000000   -0.084663    0.000000   46.504319
    0.073320   -0.042331    0.000000   46.504319
   -0.073320   -0.042331    0.000000   46.504319
    0.073320    0.042331    0.000000   46.504319
   -0.073320    0.042331    0.000000   46.504319
   -0.000000    0.084663    0.000000   46.504319
    0.000000    0.000000    0.202247   12.223787
    0.000000    0.000000   -0.202247   12.223787
    0.000000   -0.084663    0.000000   46.504319
    0.073320   -0.042331    0.000000   46.504319
   -0.073320   -0.042331    0.000000   46.504319
    0.073320    0.042331    0.000000   46.504319
   -0.073320    0.042331    0.000000   46.504319
   -0.000000    0.084663    0.000000   46.504319
    0.000000    0.000000    0.202247   12.223787
    0.000000    0.000000   -0.202247   12.223787
    0.000000   -0.084663    0.000000   46.504319
    0.073320   -0.042331    0.000000   46.504319
   -0.073320   -0.042331    0.000000   46.504319
    0.073320    0.042331    0.000000   46.504319
   -0.073320    0.042331    0.000000   46.504319
   -0.000000    0.084663    0.000000   46.504319
    0.000000    0.000000    0.202247   12.223787
    0.000000    0.000000   -0.202247   12.223787
    0.000000   -0.084663    0.000000   46.504319
    0.073320   -0.042331    0.000000   46.504319
   -0.073320   -0.042331    0.000000   46.504319
    0.073320    0.042331    0.000000   46.504319
   -0.073320    0.042331    0.000000   46.504319
   -0.000000    0.084663    0.000000   46.504319
    0.000000    0.000000    0.202247   12.223787
    0.000000    0.000000   -0.202247   12.223787
    0.000000   -0.084663    0.000000   46.504319
    0.073320   -0.042331    0.000000   46.504319
   -0.073320   -0.042331    0.000000   46.504319
    0.073320    0.042331    0.000000   46.504319
   -0.073320    0.042331    0.000000   46.504319
   -0.000000    0.084663    0.000000   46.504319
    0.000000    0.000000    0.202247   12.223787
    0.000000    0.000000   -0.202247   12.223787
    0.000000   -0.084663    0.000000   46.504319
    0.073320   -0.042331    0.000000   46.504319
   -0.073320   -0.042331    0.000000   46.504319
    0.073320    0.042331    0.000000   46.504319
   -0.073320    0.042331    0.000000   46.504319
   -0.000000    0.084663    0.000000   46.504319
    0.000000    0.000000    0.202247   12.223787
    0.000000    0.000000   -0.202247   12.223787
    0.073320   -0.042331    0.000000   46.504319
    0.000000   -0.084663    0.000000   46.504319
    0.073320    0.042331    0.000000   46.504319
   -0.073320   -0.042331    0.000000   46.504319
   -0.073320    0.042331    0.000000   46.504319
   -0.000000    0.084663    0.000000   46.504319
    0.000000    0.000000    0.202247   12.223787
    0.000000    0.000000   -0.202247   12.223787
    0.000000   -0.084663    0.000000   46.504319
    0.073320   -0.042331    0.000000   46.504319
    0.073320    0.042331    0.000000   46.504319
   -0.073320   -0.042331    0.000000   46.504319
   -0.000000    0.084663    0.000000   46.504319
   -0.073320    0.042331    0.000000   46.504319
    0.000000    0.000000    0.202247   12.223787
    0.000000    0.000000   -0.202247   12.223787
    0.000000   -0.084663    0.000000   46.504319
    0.073320   -0.042331    0.000000   46.504319
   -0.073320   -0.042331    0.000000   46.504319
    0.073320    0.042331    0.000000   46.504319
   -0.073320    0.042331    0.000000   46.504319
   -0.000000    0.084663    0.000000   46.504319
    0.000000    0.000000    0.202247   12.223787
    0.000000    0.000000   -0.202247   12.223787
    0.000000   -0.084663    0.000000   46.504319
    0.073320   -0.042331    0.000000   46.504319
   -0.073320   -0.042331    0.000000   46.504319
    0.073320    0.042331    0.000000   46.504319
   -0.073320    0.042331    0.000000   46.504319
   -0.000000    0.084663    0.000000   46.504319
    0.000000    0.000000    0.202247   12.223787
    0.000000    0.000000   -0.202247   12.223787
    0.000000   -0.084663    0.000000   46.504319
    0.073320   -0.042331    0.000000   46.504319
   -0.073320   -0.042331    0.000000   46.504319
    0.073320    0.042331    0.000000   46.504319
   -0.073320    0.042331    0.000000   46.504319
   -0.000000    0.084663    0.000000   46.504319
    0.000000    0.000000    0.202247   12.223787
    0.000000    0.000000   -0.202247   12.223787
    0.000000   -0.084663    0.000000   46.504319
    0.073320   -0.042331    0.000000   46.504319
   -0.073320   -0.042331    0.000000   46.504319
    0.073320    0.042331    0.000000   46.504319
   -0.073320    0.042331    0.000000   46.504319
   -0.000000    0.084663    0.000000   46.504319
    0.000000    0.000000    0.202247   12.223787
    0.000000    0.000000   -0.202247   12.223787
    0.000000   -0.084663    0.000000   46.504319
    0.073320   -0.042331    0.000000   46.504319
   -0.073320   -0.042331    0.000000   46.504319
    0.073320    0.042331    0.000000   46.504319
   -0.073320    0.042331    0.000000   46.504319
   -0.000000    0.084663    0.000000   46.504319
    0.000000    0.000000    0.202247   12.223787
    0.000000    0.000000   -0.202247   12.223787
    0.000000   -0.084663    0.000000   46.504319
    0.073320   -0.042331    0.000000   46.504319
   -0.073320   -0.042331    0.000000   46.504319
    0.073320    0.042331    0.000000   46.504319
   -0.073320    0.042331    0.000000   46.504319
   -0.000000    0.084663    0.000000   46.504319
    0.000000    0.000000    0.202247   12.223787
    0.000000    0.000000   -0.202247   12.223787
    0.000000   -0.084663    0.000000   46.504319
    0.073320   -0.042331    0.000000   46.504319
   -0.073320   -0.042331    0.000000   46.504319
    0.073320    0.042331    0.000000   46.504319
   -0.073320    0.042331    0.000000   46.504319
   -0.000000    0.084663    0.000000   46.504319
    0.000000    0.000000    0.202247   12.223787
    0.000000    0.000000   -0.202247   12.223787
    0.000000   -0.084663    0.000000   46.504319
    0.073320   -0.042331    0.000000   46.504319
   -0.073320   -0.042331    0.000000   46.504319
    0.073320    0.042331    0.000000   46.504319
   -0.073320    0.042331    0.000000   46.504319
   -0.000000    0.084663    0.000000   46.504319
    0.000000    0.000000    0.202247   12.223787
    0.000000    0.000000   -0.202247   12.223787
    0.000000   -0.084663    0.000000   46.504319
    0.073320   -0.042331    0.000000   46.504319
   -0.073320   -0.042331    0.000000   46.504319
    0.073320    0.042331    0.000000   46.504319
   -0.073320    0.042331    0.000000   46.504319
   -0.000000    0.084663    0.000000   46.504319
    0.000000    0.000000    0.202247   12.223787
    0.000000    0.000000   -0.202247   12.223787
    0.000000   -0.084663    0.000000   46.504319
    0.073320   -0.042331    0.000000   46.504319
   -0.073320   -0.042331    0.000000   46.504319
    0.073320    0.042331    0.000000   46.504319
   -0.073320    0.042331    0.000000   46.504319
   -0.000000    0.084663    0.000000   46.504319
    0.000000    0.000000    0.202247   12.223787
    0.000000    0.000000   -0.202247   12.223787
    0.000000   -0.084663    0.000000   46.504319
    0.073320   -0.042331    0.000000   46.504319
   -0.073320   -0.042331    0.000000   46.504319
    0.073320    0.042331    0.000000   46.504319
   -0.073320    0.042331    0.000000   46.504319
   -0.000000    0.084663    0.000000   46.504319
    0.000000    0.000000    0.202247   12.223787
    0.000000    0.000000   -0.202247   12.223787
    0.000000   -0.084663    0.000000   46.504319
   -0.073320   -0.042331    0.000000   46.504319
   -0.073320    0.042331    0.000000   46.504319
   -0.000000    0.084663    0.000000   46.504319
    0.073320   -0.042331    0.000000   46.504319
    0.073320    0.042331    0.000000   46.504319
    0.000000    0.000000    0.202247   12.223787
    0.000000    0.000000   -0.202247   12.223787
    0.000000   -0.084663    0.000000   46.504319
    0.073320   -0.042331    0.000000   46.504319
    0.073320    0.042331    0.000000   46.504319
   -0.000000    0.084663    0.000000   46.504319
   -0.073320   -0.042331    0.000000   46.504319
   -0.073320    0.042331    0.000000   46.504319
    0.000000    0.000000    0.202247   12.223787
    0.000000    0.000000   -0.202247   12.223787
    0.000000   -0.084663    0.000000   46.504319
    0.073320   -0.042331    0.000000   46.504319
   -0.073320   -0.042331    0.000000   46.504319
    0.073320    0.042331    0.000000   46.504319
   -0.073320    0.042331    0.000000   46.504319
   -0.000000    0.084663    0.000000   46.504319
    0.000000    0.000000    0.202247   12.223787
    0.000000    0.000000   -0.202247   12.223787
    0.000000   -0.084663    0.000000   46.504319
    0.073320   -0.042331    0.000000   46.504319
   -0.073320   -0.042331    0.000000   46.504319
    0.073320    0.042331    0.000000   46.504319
   -0.073320    0.042331    0.000000   46.504319
   -0.000000    0.084663    0.000000   46.504319
    0.000000    0.000000    0.202247   12.223787
    0.000000    0.000000   -0.202247   12.223787
    0.000000   -0.084663    0.000000   46.504319
    0.073320   -0.042331    0.000000   46.504319
   -0.073320   -0.042331    0.000000   46.504319
    0.073320    0.042331    0.000000   46.504319
   -0.073320    0.042331    0.000000   46.504319
   -0.000000    0.084663    0.000000   46.504319
    0.000000    0.000000    0.202247   12.223787
    0.000000    0.000000   -0.202247   12.223787
    0.000000   -0.084663    0.000000   46.504319
    0.073320   -0.042331    0.000000   46.504319
   -0.073320   -0.042331    0.000000   46.504319
    0.073320    0.042331    0.000000   46.504319
   -0.073320    0.042331    0.000000   46.504319
   -0.000000    0.084663    0.000000   46.504319
    0.000000    0.000000    0.202247   12.223787
    0.000000    0.000000   -0.202247   12.223787
    0.000000   -0.084663    0.000000   46.504319
    0.073320   -0.042331    0.000000   46.504319
   -0.073320   -0.042331    0.000000   46.504319
    0.073320    0.042331    0.000000   46.504319
   -0.073320    0.042331    0.000000   46.504319
   -0.000000    0.084663    0.000000   46.504319
    0.000000    0.000000    0.202247   12.223787
    0.000000    0.000000   -0.202247   12.223787
    0.000000   -0.084663    0.000000   46.504319
    0.073320   -0.042331    0.000000   46.504319
   -0.073320   -0.042331    0.000000   46.504319
    0.073320    0.042331    0.000000   46.504319
   -0.073320    0.042331    0.000000   46.504319
   -0.000000    0.084663    0.000000   46.504319
    0.000000    0.000000    0.202247   12.223787
    0.000000    0.000000   -0.202247   12.223787
    0.000000   -0.084663    0.000000   46.504319
    0.073320   -0.042331    0.000000   46.504319
   -0.073320   -0.042331    0.000000   46.504319
    0.073320    0.042331    0.000000   46.504319
   -0.073320    0.042331    0.000000   46.504319
   -0.000000    0.084663    0.000000   46.504319
    0.000000    0.000000    0.202247   12.223787
    0.000000    0.000000   -0.202247   12.223787
    0.000000   -0.084663    0.000000   46.504319
    0.073320   -0.042331    0.000000   46.504319
   -0.073320   -0.042331    0.000000   46.504319
    0.073320    0.042331    0.000000   46.504319
   -0.073320    0.042331    0.000000   46.504319
   -0.000000    0.084663    0.000000   46.504319
    0.000000    0.000000    0.202247   12.223787
    0.000000    0.000000   -0.202247   12.223787
    0.000000   -0.084663    0.000000   46.504319
    0.073320   -0.042331    0.000000   46.504319
   -0.073320   -0.042331    0.000000   46.504319
    0.073320    0.042331    0.000000   46.504319
   -0.073320    0.042331    0.000000   46.504319
   -0.000000    0.084663    0.000000   46.504319
    0.000000    0.000000    0.202247   12.223787
    0.000000    0.000000   -0.202247   12.223787
    0.000000   -0.084663    0.000000   46.504319
    0.073320   -0.042331    0.000000   46.504319
   -0.073320   -0.042331    0.000000   46.504319
    0.073320    0.042331    0.000000   46.504319
   -0.073320    0.042331    0.000000   46.504319
   -0.000000    0.084663    0.000000   46.504319
    0.000000    0.000000    0.202247   12.223787
    0.000000    0.000000   -0.202247   12.223787
    0.073320   -0.042331    0.000000   46.504319
    0.000000   -0.084663    0.000000   46.504319
    0.073320    0.042331    0.000000   46.504319
   -0.073320   -0.042331    0.000000   46.504319
   -0.073320    0.042331    0.000000   46.504319
   -0.000000    0.084663    0.000000   46.504319
    0.000000    0.000000    0.202247   12.223787
    0.000000    0.000000   -0.202247   12.223787
    0.000000   -0.084663    0.000000   46.504319
    0.073320   -0.042331    0.000000   46.504319
    0.073320    0.042331    0.000000   46.504319
   -0.073320   -0.042331    0.000000   46.504319
   -0.000000    0.084663    0.000000   46.504319
   -0.073320    0.042331    0.000000   46.504319
    0.000000    0.000000    0.202247   12.223787
    0.000000    0.000000   -0.202247   12.223787
    0.000000   -0.084663    0.000000   46.504319
    0.073320   -0.042331    0.000000   46.504319
   -0.073320   -0.042331    0.000000   46.504319
    0.073320    0.042331    0.000000   46.504319
   -0.073320    0.042331    0.000000   46.504319
   -0.000000    0.084663    0.000000   46.504319
    0.000000    0.000000    0.202247   12.223787
    0.000000    0.000000   -0.202247   12.223787
    0.000000   -0.084663    0.000000   46.504319
    0.073320   -0.042331    0.000000   46.504319
   -0.073320   -0.042331    0.000000   46.504319
    0.073320    0.042331    0.000000   46.504319
   -0.073320    0.042331    0.000000   46.504319
   -0.000000    0.084663    0.000000   46.504319
    0.000000    0.000000    0.202247   12.223787
    0.000000    0.000000   -0.202247   12.223787
    0.000000   -0.084663    0.000000   46.504319
    0.073320   -0.042331    0.000000   46.504319
   -0.073320   -0.042331    0.000000   46.504319
    0.073320    0.042331    0.000000   46.504319
   -0.073320    0.042331    0.000000   46.504319
   -0.000000    0.084663    0.000000   46.504319
    0.000000    0.000000    0.202247   12.223787
    0.000000    0.000000   -0.202247   12.223787
    0.000000   -0.084663    0.000000   46.504319
    0.073320   -0.042331    0.000000   46.504319
   -0.073320   -0.042331    0.000000   46.504319
    0.073320    0.042331    0.000000   46.504319
   -0.073320    0.042331    0.000000   46.504319
   -0.000000    0.084663    0.000000   46.504319
    0.000000    0.000000    0.202247   12.223787
    0.000000    0.000000   -0.202247   12.223787
    0.000000   -0.084663    0.000000   46.504319
    0.073320   -0.042331    0.000000   46.504319
   -0.073320   -0.042331    0.000000   46.504319
    0.073320    0.042331    0.000000   46.504319
   -0.073320    0.042331    0.000000   46.504319
   -0.000000    0.084663    0.000000   46.504319
    0.000000    0.000000    0.202247   12.223787
    0.000000    0.000000   -0.202247   12.223787
    0.000000   -0.084663    0.000000   46.504319
    0.073320   -0.042331    0.000000   46.504319
   -0.073320   -0.042331    0.000000   46.504319
    0.073320    0.042331    0.000000   46.504319
   -0.073320    0.042331    0.000000   46.504319
   -0.000000    0.084663    0.000000   46.504319
    0.000000    0.000000    0.202247   12.223787
    0.000000    0.000000   -0.202247   12.223787
    0.000000   -0.084663    0.000000   46.504319
    0.073320   -0.042331    0.000000   46.504319
   -0.073320   -0.042331    0.000000   46.504319
    0.073320    0.042331    0.000000   46.504319
   -0.073320    0.042331    0.000000   46.504319
   -0.000000    0.084663    0.000000   46.504319
    0.000000    0.000000    0.202247   12.223787
    0.000000    0.000000   -0.202247   12.223787
    0.000000   -0.084663    0.000000   46.504319
    0.073320   -0.042331    0.000000   46.504319
   -0.073320   -0.042331    0.000000   46.504319
    0.073320    0.042331    0.000000   46.504319
   -0.073320    0.042331    0.000000   46.504319
   -0.000000    0.084663    0.000000   46.504319
    0.000000    0.000000    0.202247   12.223787
    0.000000    0.000000   -0.202247   12.223787
    0.000000   -0.084663    0.000000   46.504319
    0.073320   -0.042331    0.000000   46.504319
   -0.073320   -0.042331    0.000000   46.504319
    0.073320    0.042331    0.000000   46.504319
   -0.073320    0.042331    0.000000   46.504319
   -0.000000    0.084663    0.000000   46.504319
    0.000000    0.000000    0.202247   12.223787
    0.000000    0.000000   -0.202247   12.223787
    0.000000   -0.084663    0.000000   46.504319
    0.073320   -0.042331    0.000000   46.504319
   -0.073320   -0.042331    0.000000   46.504319
    0.073320    0.042331    0.000000   46.504319
   -0.073320    0.042331    0.000000   46.504319
   -0.000000    0.084663    0.000000   46.504319
    0.000000    0.000000    0.202247   12.223787
    0.000000    0.000000   -0.202247   12.223787
    0.000000   -0.084663    0.000000   46.504319
    0.073320   -0.042331    0.000000   46.504319
   -0.073320   -0.042331    0.000000   46.504319
    0.073320    0.042331    0.000000   46.504319
   -0.073320    0.042331    0.000000   46.504319
   -0.000000    0.084663    0.000000   46.504319
    0.000000    0.000000    0.202247   12.223787
    0.000000    0.000000   -0.202247   12.223787
    0.000000   -0.084663    0.000000   46.504319
   -0.073320   -0.042331    0.000000   46.504319
   -0.073320    0.042331    0.000000   46.504319
   -0.000000    0.084663    0.000000   46.504319
    0.073320   -0.042331    0.000000   46.504319
    0.073320    0.042331    0.000000   46.504319
    0.000000    0.000000    0.202247   12.223787
    0.000000    0.000000   -0.202247   12.223787
    0.000000   -0.084663    0.000000   46.504319
    0.073320   -0.042331    0.000000   46.504319
    0.073320    0.042331    0.000000   46.504319
   -0.000000    0.084663    0.000000   46.504319
   -0.073320   -0.042331    0.000000   46.504319
   -0.073320    0.042331    0.000000   46.504319
    0.000000    0.000000    0.202247   12.223787
    0.000000    0.000000   -0.202247   12.223787
    0.000000   -0.084663    0.000000   46.504319
    0.073320   -0.042331    0.000000   46.504319
   -0.073320   -0.042331    0.000000   46.504319
    0.073320    0.042331    0.000000   46.504319
   -0.073320    0.042331    0.000000   46.504319
   -0.000000    0.084663    0.000000   46.504319
    0.000000    0.000000    0.202247   12.223787
    0.000000    0.000000   -0.202247   12.223787
    0.000000   -0.084663    0.000000   46.504319
    0.073320   -0.042331    0.000000   46.504319
   -0.073320   -0.042331    0.000000   46.504319
    0.073320    0.042331    0.000000   46.504319
   -0.073320    0.042331    0.000000   46.504319
   -0.000000    0.084663    0.000000   46.504319
    0.000000    0.000000    0.202247   12.223787
    0.000000    0.000000   -0.202247   12.223787
    0.000000   -0.084663    0.000000   46.504319
    0.073320   -0.042331    0.000000   46.504319
   -0.073320   -0.042331    0.000000   46.504319
    0.073320    0.042331    0.000000   46.504319
   -0.073320    0.042331    0.000000   46.504319
   -0.000000    0.084663    0.000000   46.504319
    0.000000    0.000000    0.202247   12.223787
    0.000000    0.000000   -0.202247   12.223787
    0.000000   -0.084663    0.000000   46.504319
    0.073320   -0.042331    0.000000   46.504319
   -0.073320   -0.042331    0.000000   46.504319
    0.073320    0.042331    0.000000   46.504319
   -0.073320    0.042331    0.000000   46.504319
   -0.000000    0.084663    0.000000   46.504319
    0.000000    0.000000    0.202247   12.223787
    0.000000    0.000000   -0.202247   12.223787
    0.000000   -0.084663    0.000000   46.504319
    0.073320   -0.042331    0.000000   46.504319
   -0.073320   -0.042331    0.000000   46.504319
    0.073320    0.042331    0.000000   46.504319
   -0.073320    0.042331    0.000000   46.504319
   -0.000000    0.084663    0.000000   46.504319
    0.000000    0.000000    0.202247   12.223787
    0.000000    0.000000   -0.202247   12.223787
    0.000000   -0.084663    0.000000   46.504319
    0.073320   -0.042331    0.000000   46.504319
   -0.073320   -0.042331    0.000000   46.504319
    0.073320    0.042331    0.000000   46.504319
   -0.073320    0.042331    0.000000   46.504319
   -0.000000    0.084663    0.000000   46.504319
    0.000000    0.000000    0.202247   12.223787
    0.000000    0.000000   -0.202247   12.223787
    0.000000   -0.084663    0.000000   46.504319
    0.073320   -0.042331    0.000000   46.504319
   -0.073320   -0.042331    0.000000   46.504319
    0.073320    0.042331    0.000000   46.504319
   -0.073320    0.042331    0.000000   46.504319
   -0.000000    0.084663    0.000000   46.504319
    0.000000    0.000000    0.202247   12.223787
    0.000000    0.000000   -0.202247   12.223787
    0.000000   -0.084663    0.000000   46.504319
    0.073320   -0.042331    0.000000   46.504319
   -0.073320   -0.042331    0.000000   46.504319
    0.073320    0.042331    0.000000   46.504319
   -0.073320    0.042331    0.000000   46.504319
   -0.000000    0.084663    0.000000   46.504319
    0.000000    0.000000    0.202247   12.223787
    0.000000    0.000000   -0.202247   12.223787
    0.000000   -0.084663    0.000000   46.504319
    0.073320   -0.042331    0.000000   46.504319
   -0.073320   -0.042331    0.000000   46.504319
    0.073320    0.042331    0.000000   46.504319
   -0.073320    0.042331    0.000000   46.504319
   -0.000000    0.084663    0.000000   46.504319
    0.000000    0.000000    0.202247   12.223787
    0.000000    0.000000   -0.202247   12.223787
    0.000000   -0.084663    0.000000   46.504319
    0.073320   -0.042331    0.000000   46.504319
   -0.073320   -0.042331    0.000000   46.504319
    0.073320    0.042331    0.000000   46.504319
   -0.073320    0.042331    0.000000   46.504319
   -0.000000    0.084663    0.000000   46.504319
    0.000000    0.000000    0.202247   12.223787
    0.000000    0.000000   -0.202247   12.223787
    0.073320   -0.042331    0.000000   46.504319
    0.000000   -0.084663    0.000000   46.504319
    0.073320    0.042331    0.000000   46.504319
   -0.073320   -0.042331    0.000000   46.504319
   -0.073320    0.042331    0.000000   46.504319
   -0.000000    0.084663    0.000000   46.504319
    0.000000    0.000000    0.202247   12.223787
    0.000000    0.000000   -0.202247   12.223787
    0.000000   -0.084663    0.000000   46.504319
    0.073320   -0.042331    0.000000   46.504319
    0.073320    0.042331    0.000000   46.504319
   -0.073320   -0.042331    0.000000   46.504319
   -0.000000    0.084663    0.000000   46.504319
   -0.073320    0.042331    0.000000   46.504319
    0.000000    0.000000    0.202247   12.223787
    0.000000    0.000000   -0.202247   12.223787
    0.000000   -0.084663    0.000000   46.504319
    0.073320   -0.042331    0.000000   46.504319
   -0.073320   -0.042331    0.000000   46.504319
    0.073320    0.042331    0.000000   46.504319
   -0.073320    0.042331    0.000000   46.504319
   -0.000000    0.084663    0.000000   46.504319
    0.000000    0.000000    0.202247   12.223787
    0.000000    0.000000   -0.202247   12.223787
    0.000000   -0.084663    0.000000   46.504319
    0.073320   -0.042331    0.000000   46.504319
   -0.073320   -0.042331    0.000000   46.504319
    0.073320    0.042331    0.000000   46.504319
   -0.073320    0.042331    0.000000   46.504319
   -0.000000    0.084663    0.000000   46.504319
    0.000000    0.000000    0.202247   12.223787
    0.000000    0.000000   -0.202247   12.223787
    0.000000   -0.084663    0.000000   46.504319
    0.073320   -0.042331    0.000000   46.504319
   -0.073320   -0.042331    0.000000   46.504319
    0.073320    0.042331    0.000000   46.504319
   -0.073320    0.042331    0.000000   46.504319
   -0.000000    0.084663    0.000000   46.504319
    0.000000    0.000000    0.202247   12.223787
    0.000000    0.000000   -0.202247   12.223787
    0.000000   -0.084663    0.000000   46.504319
    0.073320   -0.042331    0.000000   46.504319
   -0.073320   -0.042331    0.000000   46.504319
    0.073320    0.042331    0.000000   46.504319
   -0.073320    0.042331    0.000000   46.504319
   -0.000000    0.084663    0.000000   46.504319
    0.000000    0.000000    0.202247   12.223787
    0.000000    0.000000   -0.202247   12.223787
    0.000000   -0.084663    0.000000   46.504319
    0.073320   -0.042331    0.000000   46.504319
   -0.073320   -0.042331    0.000000   46.504319
    0.073320    0.042331    0.000000   46.504319
   -0.073320    0.042331    0.000000   46.504319
   -0.000000    0.084663    0.000000   46.504319
    0.000000    0.000000    0.202247   12.223787
    0.000000    0.000000   -0.202247   12.223787
    0.000000   -0.084663    0.000000   46.504319
    0.073320   -0.042331    0.000000   46.504319
   -0.073320   -0.042331    0.000000   46.504319
    0.073320    0.042331    0.000000   46.504319
   -0.073320    0.042331    0.000000   46.504319
   -0.000000    0.084663    0.000000   46.504319
    0.000000    0.000000    0.202247   12.223787
    0.000000    0.000000   -0.202247   12.223787
    0.000000   -0.084663    0.000000   46.504319
    0.073320   -0.042331    0.000000   46.504319
   -0.073320   -0.042331    0.000000   46.504319
    0.073320    0.042331    0.000000   46.504319
   -0.073320    0.042331    0.000000   46.504319
   -0.000000    0.084663    0.000000   46.504319
    0.000000    0.000000    0.202247   12.223787
    0.000000    0.000000   -0.202247   12.223787
    0.000000   -0.084663    0.000000   46.504319
    0.073320   -0.042331    0.000000   46.504319
   -0.073320   -0.042331    0.000000   46.504319
    0.073320    0.042331    0.000000   46.504319
   -0.073320    0.042331    0.000000   46.504319
   -0.000000    0.084663    0.000000   46.504319
    0.000000    0.000000    0.202247   12.223787
    0.000000    0.000000   -0.202247   12.223787
    0.000000   -0.084663    0.000000   46.504319
    0.073320   -0.042331    0.000000   46.504319
   -0.073320   -0.042331    0.000000   46.504319
    0.073320    0.042331    0.000000   46.504319
   -0.073320    0.042331    0.000000   46.504319
   -0.000000    0.084663    0.000000   46.504319
    0.000000    0.000000    0.202247   12.223787
    0.000000    0.000000   -0.202247   12.223787
    0.000000   -0.084663    0.000000   46.504319
    0.073320   -0.042331    0.000000   46.504319
   -0.073320   -0.042331    0.000000   46.504319
    0.073320    0.042331    0.000000   46.504319
   -0.073320    0.042331    0.000000   46.504319
   -0.000000    0.084663    0.000000   46.504319
    0.000000    0.000000    0.202247   12.223787
    0.000000    0.000000   -0.202247   12.223787
    0.000000   -0.084663    0.000000   46.504319
    0.073320   -0.042331    0.000000   46.504319
   -0.073320   -0.042331    0.000000   46.504319
    0.073320    0.042331    0.000000   46.504319
   -0.073320    0.042331    0.000000   46.504319
   -0.000000    0.084663    0.000000   46.504319
    0.000000    0.000000    0.202247   12.223787
    0.000000    0.000000   -0.202247   12.223787
    0.000000   -0.084663    0.000000   46.504319
   -0.073320   -0.042331    0.000000   46.504319
   -0.073320    0.042331    0.000000   46.504319
   -0.000000    0.084663    0.000000   46.504319
    0.073320   -0.042331    0.000000   46.504319
    0.073320    0.042331    0.000000   46.504319
    0.000000    0.000000    0.202247   12.223787
    0.000000    0.000000   -0.202247   12.223787
    0.000000   -0.084663    0.000000   46.504319
    0.073320   -0.042331    0.000000   46.504319
    0.073320    0.042331    0.000000   46.504319
   -0.000000    0.084663    0.000000   46.504319
   -0.073320   -0.042331    0.000000   46.504319
   -0.073320    0.042331    0.000000   46.504319
    0.000000    0.000000    0.202247   12.223787
    0.000000    0.000000   -0.202247   12.223787
    0.000000   -0.084663    0.000000   46.504319
    0.073320   -0.042331    0.000000   46.504319
   -0.073320   -0.042331    0.000000   46.504319
    0.073320    0.042331    0.000000   46.504319
   -0.073320    0.042331    0.000000   46.504319
   -0.000000    0.084663    0.000000   46.504319
    0.000000    0.000000    0.202247   12.223787
    0.000000    0.000000   -0.202247   12.223787
    0.000000   -0.084663    0.000000   46.504319
    0.073320   -0.042331    0.000000   46.504319
   -0.073320   -0.042331    0.000000   46.504319
    0.073320    0.042331    0.000000   46.504319
   -0.073320    0.042331    0.000000   46.504319
   -0.000000    0.084663    0.000000   46.504319
    0.000000    0.000000    0.202247   12.223787
    0.000000    0.000000   -0.202247   12.223787
    0.000000   -0.084663    0.000000   46.504319
    0.073320   -0.042331    0.000000   46.504319
   -0.073320   -0.042331    0.000000   46.504319
    0.073320    0.042331    0.000000   46.504319
   -0.073320    0.042331    0.000000   46.504319
   -0.000000    0.084663    0.000000   46.504319
    0.000000    0.000000    0.202247   12.223787
    0.000000    0.000000   -0.202247   12.223787
    0.000000   -0.084663    0.000000   46.504319
    0.073320   -0.042331    0.000000   46.504319
   -0.073320   -0.042331    0.000000   46.504319
    0.073320    0.042331    0.000000   46.504319
   -0.073320    0.042331    0.000000   46.504319
   -0.000000    0.084663    0.000000   46.504319
    0.000000    0.000000    0.202247   12.223787
    0.000000    0.000000   -0.202247   12.223787
    0.000000   -0.084663    0.000000   46.504319
    0.073320   -0.042331    0.000000   46.504319
   -0.073320   -0.042331    0.000000   46.504319
    0.073320    0.042331    0.000000   46.504319
   -0.073320    0.042331    0.000000   46.504319
   -0.000000    0.084663    0.000000   46.504319
    0.000000    0.000000    0.202247   12.223787
    0.000000    0.000000   -0.202247   12.223787
    0.000000   -0.084663    0.000000   46.504319
    0.073320   -0.042331    0.000000   46.504319
   -0.073320   -0.042331    0.000000   46.504319
    0.073320    0.042331    0.000000   46.504319
   -0.073320    0.042331    0.000000   46.504319
   -0.000000    0.084663    0.000000   46.504319
    0.000000    0.000000    0.202247   12.223787
    0.000000    0.000000   -0.202247   12.223787
    0.000000   -0.084663    0.000000   46.504319
    0.073320   -0.042331    0.000000   46.504319
   -0.073320   -0.042331    0.000000   46.504319
    0.073320    0.042331    0.000000   46.504319
   -0.073320    0.042331    0.000000   46.504319
   -0.000000    0.084663    0.000000   46.504319
    0.000000    0.000000    0.202247   12.223787
    0.000000    0.000000   -0.202247   12.223787
    0.000000   -0.084663    0.000000   46.504319
    0.073320   -0.042331    0.000000   46.504319
   -0.073320   -0.042331    0.000000   46.504319
    0.073320    0.042331    0.000000   46.504319
   -0.073320    0.042331    0.000000   46.504319
   -0.000000    0.084663    0.000000   46.504319
    0.000000    0.000000    0.202247   12.223787
    0.000000    0.000000   -0.202247   12.223787
    0.000000   -0.084663    0.000000   46.504319
    0.073320   -0.042331    0.000000   46.504319
   -0.073320   -0.042331    0.000000   46.504319
    0.073320    0.042331    0.000000   46.504319
   -0.073320    0.042331    0.000000   46.504319
   -0.000000    0.084663    0.000000   46.504319
    0.000000    0.000000    0.202247   12.223787
    0.000000    0.000000   -0.202247   12.223787
    0.000000   -0.084663    0.000000   46.504319
    0.073320   -0.042331    0.000000   46.504319
   -0.073320   -0.042331    0.000000   46.504319
    0.073320    0.042331    0.000000   46.504319
   -0.073320    0.042331    0.000000   46.504319
   -0.000000    0.084663    0.000000   46.504319
    0.000000    0.000000    0.202247   12.223787
    0.000000    0.000000   -0.202247   12.223787
    0.073320   -0.042331    0.000000   46.504319
    0.000000   -0.084663    0.000000   46.504319
    0.073320    0.042331    0.000000   46.504319
   -0.073320   -0.042331    0.000000   46.504319
   -0.073320    0.042331    0.000000   46.504319
   -0.000000    0.084663    0.000000   46.504319
    0.000000    0.000000    0.202247   12.223787
    0.000000    0.000000   -0.202247   12.223787
    0.000000   -0.084663    0.000000   46.504319
    0.073320   -0.042331    0.000000   46.504319
    0.073320    0.042331    0.000000   46.504319
   -0.073320   -0.042331    0.000000   46.504319
   -0.000000    0.084663    0.000000   46.504319
   -0.073320    0.042331    0.000000   46.504319
    0.000000    0.000000    0.202247   12.223787
    0.000000    0.000000   -0.202247   12.223787
    0.000000   -0.084663    0.000000   46.504319
    0.073320   -0.042331    0.000000   46.504319
   -0.073320   -0.042331    0.000000   46.504319
    0.073320    0.042331    0.000000   46.504319
   -0.073320    0.042331    0.000000   46.504319
   -0.000000    0.084663    0.000000   46.504319
    0.000000    0.000000    0.202247   12.223787
    0.000000    0.000000   -0.202247   12.223787
    0.000000   -0.084663    0.000000   46.504319
    0.073320   -0.042331    0.000000   46.504319
   -0.073320   -0.042331    0.000000   46.504319
    0.073320    0.042331    0.000000   46.504319
   -0.073320    0.042331    0.000000   46.504319
   -0.000000    0.084663    0.000000   46.504319
    0.000000    0.000000    0.202247   12.223787
    0.000000    0.000000   -0.202247   12.223787
    0.000000   -0.084663    0.000000   46.504319
    0.073320   -0.042331    0.000000   46.504319
   -0.073320   -0.042331    0.000000   46.504319
    0.073320    0.042331    0.000000   46.504319
   -0.073320    0.042331    0.000000   46.504319
   -0.000000    0.084663    0.000000   46.504319
    0.000000    0.000000    0.202247   12.223787
    0.000000    0.000000   -0.202247   12.223787
    0.000000   -0.084663    0.000000   46.504319
    0.073320   -0.042331    0.000000   46.504319
   -0.073320   -0.042331    0.000000   46.504319
    0.073320    0.042331    0.000000   46.504319
   -0.073320    0.042331    0.000000   46.504319
   -0.000000    0.084663    0.000000   46.504319
    0.000000    0.000000    0.202247   12.223787
    0.000000    0.000000   -0.202247   12.223787
    0.000000   -0.084663    0.000000   46.504319
    0.073320   -0.042331    0.000000   46.504319
   -0.073320   -0.042331    0.000000   46.504319
    0.073320    0.042331    0.000000   46.504319
   -0.073320    0.042331    0.000000   46.504319
   -0.000000    0.084663    0.000000   46.504319
    0.000000    0.000000    0.202247   12.223787
    0.000000    0.000000   -0.202247   12.223787
    0.000000   -0.084663    0.000000   46.504319
    0.073320   -0.042331    0.000000   46.504319
   -0.073320   -0.042331    0.000000   46.504319
    0.073320    0.042331    0.000000   46.504319
   -0.073320    0.042331    0.000000   46.504319
   -0.000000    0.084663    0.000000   46.504319
    0.000000    0.000000    0.202247   12.223787
    0.000000    0.000000   -0.202247   12.223787
    0.000000   -0.084663    0.000000   46.504319
    0.073320   -0.042331    0.000000   46.504319
   -0.073320   -0.042331    0.000000   46.504319
    0.073320    0.042331    0.000000   46.504319
   -0.073320    0.042331    0.000000   46.504319
   -0.000000    0.084663    0.000000   46.504319
    0.000000    0.000000    0.202247   12.223787
    0.000000    0.000000   -0.202247   12.223787
    0.000000   -0.084663    0.000000   46.504319
    0.073320   -0.042331    0.000000   46.504319
   -0.073320   -0.042331    0.000000   46.504319
    0.073320    0.042331    0.000000   46.504319
   -0.073320    0.042331    0.000000   46.504319
   -0.000000    0.084663    0.000000   46.504319
    0.000000    0.000000    0.202247   12.223787
    0.000000    0.000000   -0.202247   12.223787
    0.000000   -0.084663    0.000000   46.504319
    0.073320   -0.042331    0.000000   46.504319
   -0.073320   -0.042331    0.000000   46.504319
    0.073320    0.042331    0.000000   46.504319
   -0.073320    0.042331    0.000000   46.504319
   -0.000000    0.084663    0.000000   46.504319
    0.000000    0.000000    0.202247   12.223787
    0.000000    0.000000   -0.202247   12.223787
    0.000000   -0.084663    0.000000   46.504319
    0.073320   -0.042331    0.000000   46.504319
   -0.073320   -0.042331    0.000000   46.504319
    0.073320    0.042331    0.000000   46.504319
   -0.073320    0.042331    0.000000   46.504319
   -0.000000    0.084663    0.000000   46.504319
    0.000000    0.000000    0.202247   12.223787
    0.000000    0.000000   -0.202247   12.223787
    0.000000   -0.084663    0.000000   46.504319
    0.073320   -0.042331    0.000000   46.504319
   -0.073320   -0.042331    0.000000   46.504319
    0.073320    0.042331    0.000000   46.504319
   -0.073320    0.042331    0.000000   46.504319
   -0.000000    0.084663    0.000000   46.504319
    0.000000    0.000000    0.202247   12.223787
    0.000000    0.000000   -0.202247   12.223787
    0.000000   -0.084663    0.000000   46.504319
   -0.073320   -0.042331    0.000000   46.504319
   -0.073320    0.042331    0.000000   46.504319
   -0.000000    0.084663    0.000000   46.504319
    0.073320   -0.042331    0.000000   46.504319
    0.073320    0.042331    0.000000   46.504319
    0.000000    0.000000    0.202247   12.223787
    0.000000    0.000000   -0.202247   12.223787
    0.000000   -0.084663    0.000000   46.504319
    0.073320   -0.042331    0.000000   46.504319
    0.073320    0.042331    0.000000   46.504319
   -0.000000    0.084663    0.000000   46.504319
   -0.073320   -0.042331    0.000000   46.504319
   -0.073320    0.042331    0.000000   46.504319
    0.000000    0.000000    0.202247   12.223787
    0.000000    0.000000   -0.202247   12.223787
    0.000000   -0.084663    0.000000   46.504319
    0.073320   -0.042331    0.000000   46.504319
   -0.073320   -0.042331    0.000000   46.504319
    0.073320    0.042331    0.000000   46.504319
   -0.073320    0.042331    0.000000   46.504319
   -0.000000    0.084663    0.000000   46.504319
    0.000000    0.000000    0.202247   12.223787
    0.000000    0.000000   -0.202247   12.223787
    0.000000   -0.084663    0.000000   46.504319
    0.073320   -0.042331    0.000000   46.504319
   -0.073320   -0.042331    0.000000   46.504319
    0.073320    0.042331    0.000000   46.504319
   -0.073320    0.042331    0.000000   46.504319
   -0.000000    0.084663    0.000000   46.504319
    0.000000    0.000000    0.202247   12.223787
    0.000000    0.000000   -0.202247   12.223787
    0.000000   -0.084663    0.000000   46.504319
    0.073320   -0.042331    0.000000   46.504319
   -0.073320   -0.042331    0.000000   46.504319
    0.073320    0.042331    0.000000   46.504319
   -0.073320    0.042331    0.000000   46.504319
   -0.000000    0.084663    0.000000   46.504319
    0.000000    0.000000    0.202247   12.223787
    0.000000    0.000000   -0.202247   12.223787
    0.000000   -0.084663    0.000000   46.504319
    0.073320   -0.042331    0.000000   46.504319
   -0.073320   -0.042331    0.000000   46.504319
    0.073320    0.042331    0.000000   46.504319
   -0.073320    0.042331    0.000000   46.504319
   -0.000000    0.084663    0.000000   46.504319
    0.000000    0.000000    0.202247   12.223787
    0.000000    0.000000   -0.202247   12.223787
    0.000000   -0.084663    0.000000   46.504319
    0.073320   -0.042331    0.000000   46.504319
   -0.073320   -0.042331    0.000000   46.504319
    0.073320    0.042331    0.000000   46.504319
   -0.073320    0.042331    0.000000   46.504319
   -0.000000    0.084663    0.000000   46.504319
    0.000000    0.000000    0.202247   12.223787
    0.000000    0.000000   -0.202247   12.223787
    0.000000   -0.084663    0.000000   46.504319
    0.073320   -0.042331    0.000000   46.504319
   -0.073320   -0.042331    0.000000   46.504319
    0.073320    0.042331    0.000000   46.504319
   -0.073320    0.042331    0.000000   46.504319
   -0.000000    0.084663    0.000000   46.504319
    0.000000    0.000000    0.202247   12.223787
    0.000000    0.000000   -0.202247   12.223787
    0.000000   -0.084663    0.000000   46.504319
    0.073320   -0.042331    0.000000   46.504319
   -0.073320   -0.042331    0.000000   46.504319
    0.073320    0.042331    0.000000   46.504319
   -0.073320    0.042331    0.000000   46.504319
   -0.000000    0.084663    0.000000   46.504319
    0.000000    0.000000    0.202247   12.223787
    0.000000    0.000000   -0.202247   12.223787
    0.000000   -0.084663    0.000000   46.504319
    0.073320   -0.042331    0.000000   46.504319
   -0.073320   -0.042331    0.000000   46.504319
    0.073320    0.042331    0.000000   46.504319
   -0.073320    0.042331    0.000000   46.504319
   -0.000000    0.084663    0.000000   46.504319
    0.000000    0.000000    0.202247   12.223787
    0.000000    0.000000   -0.202247   12.223787
    0.000000   -0.084663    0.000000   46.504319
    0.073320   -0.042331    0.000000   46.504319
   -0.073320   -0.042331    0.000000   46.504319
    0.073320    0.042331    0.000000   46.504319
   -0.073320    0.042331    0.000000   46.504319
   -0.000000    0.084663    0.000000   46.504319
    0.000000    0.000000    0.202247   12.223787
    0.000000    0.000000   -0.202247   12.223787
    0.000000   -0.084663    0.000000   46.504319
    0.073320   -0.042331    0.000000   46.504319
   -0.073320   -0.042331    0.000000   46.504319
    0.073320    0.042331    0.000000   46.504319
   -0.073320    0.042331    0.000000   46.504319
   -0.000000    0.084663    0.000000   46.504319
    0.000000    0.000000    0.202247   12.223787
    0.000000    0.000000   -0.202247   12.223787
    0.073320   -0.042331    0.000000   46.504319
    0.000000   -0.084663    0.000000   46.504319
    0.073320    0.042331    0.000000   46.504319
   -0.073320   -0.042331    0.000000   46.504319
   -0.073320    0.042331    0.000000   46.504319
   -0.000000    0.084663    0.000000   46.504319
    0.000000    0.000000    0.202247   12.223787
    0.000000    0.000000   -0.202247   12.223787
    0.000000   -0.084663    0.000000   46.504319
    0.073320   -0.042331    0.000000   46.504319
    0.073320    0.042331    0.000000   46.504319
   -0.073320   -0.042331    0.000000   46.504319
   -0.000000    0.084663    0.000000   46.504319
   -0.073320    0.042331    0.000000   46.504319
    0.000000    0.000000    0.202247   12.223787
    0.000000    0.000000   -0.202247   12.223787
    0.000000   -0.084663    0.000000   46.504319
    0.073320   -0.042331    0.000000   46.504319
   -0.073320   -0.042331    0.000000   46.504319
    0.073320    0.042331    0.000000   46.504319
   -0.073320    0.042331    0.000000   46.504319
   -0.000000    0.084663    0.000000   46.504319
    0.000000    0.000000    0.202247   12.223787
    0.000000    0.000000   -0.202247   12.223787
    0.000000   -0.084663    0.000000   46.504319
    0.073320   -0.042331    0.000000   46.504319
   -0.073320   -0.042331    0.000000   46.504319
    0.073320    0.042331    0.000000   46.504319
   -0.073320    0.042331    0.000000   46.504319
   -0.000000    0.084663    0.000000   46.504319
    0.000000    0.000000    0.202247   12.223787
    0.000000    0.000000   -0.202247   12.223787
    0.000000   -0.084663    0.000000   46.504319
    0.073320   -0.042331    0.000000   46.504319
   -0.073320   -0.042331    0.000000   46.504319
    0.073320    0.042331    0.000000   46.504319
   -0.073320    0.042331    0.000000   46.504319
   -0.000000    0.084663    0.000000   46.504319
    0.000000    0.000000    0.202247   12.223787
[...]
    0.073320   -0.042331    0.000000   46.504319
    0.000000   -0.084663    0.000000   46.504319
    0.073320    0.042331    0.000000   46.504319
   -0.073320   -0.042331    0.000000   46.504319
   -0.073320    0.042331    0.000000   46.504319
   -0.000000    0.084663    0.000000   46.504319
    0.000000    0.000000    0.202247   12.223787
    0.000000    0.000000   -0.202247   12.223787
    0.000000   -0.084663    0.000000   46.504319
    0.073320   -0.042331    0.000000   46.504319
    0.073320    0.042331    0.000000   46.504319
   -0.073320   -0.042331    0.000000   46.504319
   -0.000000    0.084663    0.000000   46.504319
   -0.073320    0.042331    0.000000   46.504319
    0.000000    0.000000    0.202247   12.223787
    0.000000    0.000000   -0.202247   12.223787
    0.000000   -0.084663    0.000000   46.504319
    0.073320   -0.042331    0.000000   46.504319
   -0.073320   -0.042331    0.000000   46.504319
    0.073320    0.042331    0.000000   46.504319
   -0.073320    0.042331    0.000000   46.504319
   -0.000000    0.084663    0.000000   46.504319
    0.000000    0.000000    0.202247   12.223787
    0.000000    0.000000   -0.202247   12.223787
    0.000000   -0.084663    0.000000   46.504319
    0.073320   -0.042331    0.000000   46.504319
   -0.073320   -0.042331    0.000000   46.504319
    0.073320    0.042331    0.000000   46.504319
   -0.073320    0.042331    0.000000   46.504319
   -0.000000    0.084663    0.000000   46.504319
    0.000000    0.000000    0.202247   12.223787
    0.000000    0.000000   -0.202247   12.223787
    0.000000   -0.084663    0.000000   46.504319
    0.073320   -0.042331    0.000000   46.504319
   -0.073320   -0.042331    0.000000   46.504319
    0.073320    0.042331    0.000000   46.504319
   -0.073320    0.042331    0.000000   46.504319
   -0.000000    0.084663    0.000000   46.504319
    0.000000    0.000000    0.202247   12.223787
    0.000000    0.000000   -0.202247   12.223787
    0.000000   -0.084663    0.000000   46.504319
    0.073320   -0.042331    0.000000   46.504319
   -0.073320   -0.042331    0.000000   46.504319
    0.073320    0.042331    0.000000   46.504319
   -0.073320    0.042331    0.000000   46.504319
   -0.000000    0.084663    0.000000   46.504319
    0.000000    0.000000    0.202247   12.223787
    0.000000    0.000000   -0.202247   12.223787
    0.000000   -0.084663    0.000000   46.504319
    0.073320   -0.042331    0.000000   46.504319
   -0.073320   -0.042331    0.000000   46.504319
    0.073320    0.042331    0.000000   46.504319
   -0.073320    0.042331    0.000000   46.504319
   -0.000000    0.084663    0.000000   46.504319
    0.000000    0.000000    0.202247   12.223787
    0.000000    0.000000   -0.202247   12.223787
    0.000000   -0.084663    0.000000   46.504319
    0.073320   -0.042331    0.000000   46.504319
   -0.073320   -0.042331    0.000000   46.504319
    0.073320    0.042331    0.000000   46.504319
   -0.073320    0.042331    0.000000   46.504319
   -0.000000    0.084663    0.000000   46.504319
    0.000000    0.000000    0.202247   12.223787
    0.000000    0.000000   -0.202247   12.223787
    0.000000   -0.084663    0.000000   46.504319
    0.073320   -0.042331    0.000000   46.504319
   -0.073320   -0.042331    0.000000   46.504319
    0.073320    0.042331    0.000000   46.504319
   -0.073320    0.042331    0.000000   46.504319
   -0.000000    0.084663    0.000000   46.504319
    0.000000    0.000000    0.202247   12.223787
    0.000000    0.000000   -0.202247   12.223787
    0.000000   -0.084663    0.000000   46.504319
    0.073320   -0.042331    0.000000   46.504319
   -0.073320   -0.042331    0.000000   46.504319
    0.073320    0.042331    0.000000   46.504319
   -0.073320    0.042331    0.000000   46.504319
   -0.000000    0.084663    0.000000   46.504319
    0.000000    0.000000    0.202247   12.223787
    0.000000    0.000000   -0.202247   12.223787
    0.000000   -0.084663    0.000000   46.504319
    0.073320   -0.042331    0.000000   46.504319
   -0.073320   -0.042331    0.000000   46.504319
    0.073320    0.042331    0.000000   46.504319
   -0.073320    0.042331    0.000000   46.504319
   -0.000000    0.084663    0.000000   46.504319
    0.000000    0.000000    0.202247   12.223787
    0.000000    0.000000   -0.202247   12.223787
    0.000000   -0.084663    0.000000   46.504319
    0.073320   -0.042331    0.000000   46.504319
   -0.073320   -0.042331    0.000000   46.504319
    0.073320    0.042331    0.000000   46.504319
   -0.073320    0.042331    0.000000   46.504319
   -0.000000    0.084663    0.000000   46.504319
    0.000000    0.000000    0.202247   12.223787
    0.000000    0.000000   -0.202247   12.223787
    0.000000   -0.084663    0.000000   46.504319
    0.073320   -0.042331    0.000000   46.504319
   -0.073320   -0.042331    0.000000   46.504319
    0.073320    0.042331    0.000000   46.504319
   -0.073320    0.042331    0.000000   46.504319
   -0.000000    0.084663    0.000000   46.504319
    0.000000    0.000000    0.202247   12.223787
    0.000000    0.000000   -0.202247   12.223787
    0.000000   -0.084663    0.000000   46.504319
   -0.073320   -0.042331    0.000000   46.504319
   -0.073320    0.042331    0.000000   46.504319
   -0.000000    0.084663    0.000000   46.504319
    0.073320   -0.042331    0.000000   46.504319
    0.073320    0.042331    0.000000   46.504319
    0.000000    0.000000    0.202247   12.223787
    0.000000    0.000000   -0.202247   12.223787
    0.000000   -0.084663    0.000000   46.504319
    0.073320   -0.042331    0.000000   46.504319
    0.073320    0.042331    0.000000   46.504319
   -0.000000    0.084663    0.000000   46.504319
   -0.073320   -0.042331    0.000000   46.504319
   -0.073320    0.042331    0.000000   46.504319
    0.000000    0.000000    0.202247   12.223787
    0.000000    0.000000   -0.202247   12.223787
    0.000000   -0.084663    0.000000   46.504319
    0.073320   -0.042331    0.000000   46.504319
   -0.073320   -0.042331    0.000000   46.504319
    0.073320    0.042331    0.000000   46.504319
   -0.073320    0.042331    0.000000   46.504319
   -0.000000    0.084663    0.000000   46.504319
    0.000000    0.000000    0.202247   12.223787
    0.000000    0.000000   -0.202247   12.223787
    0.000000   -0.084663    0.000000   46.504319
    0.073320   -0.042331    0.000000   46.504319
   -0.073320   -0.042331    0.000000   46.504319
    0.073320    0.042331    0.000000   46.504319
   -0.073320    0.042331    0.000000   46.504319
   -0.000000    0.084663    0.000000   46.504319
    0.000000    0.000000    0.202247   12.223787
    0.000000    0.000000   -0.202247   12.223787
    0.000000   -0.084663    0.000000   46.504319
    0.073320   -0.042331    0.000000   46.504319
   -0.073320   -0.042331    0.000000   46.504319
    0.073320    0.042331    0.000000   46.504319
   -0.073320    0.042331    0.000000   46.504319
   -0.000000    0.084663    0.000000   46.504319
    0.000000    0.000000    0.202247   12.223787
    0.000000    0.000000   -0.202247   12.223787
    0.000000   -0.084663    0.000000   46.504319
    0.073320   -0.042331    0.000000   46.504319
   -0.073320   -0.042331    0.000000   46.504319
    0.073320    0.042331    0.000000   46.504319
   -0.073320    0.042331    0.000000   46.504319
   -0.000000    0.084663    0.000000   46.504319
    0.000000    0.000000    0.202247   12.223787
    0.000000    0.000000   -0.202247   12.223787
    0.000000   -0.084663    0.000000   46.504319
    0.073320   -0.042331    0.000000   46.504319
   -0.073320   -0.042331    0.000000   46.504319
    0.073320    0.042331    0.000000   46.504319
   -0.073320    0.042331    0.000000   46.504319
   -0.000000    0.084663    0.000000   46.504319
    0.000000    0.000000    0.202247   12.223787
    0.000000    0.000000   -0.202247   12.223787
    0.000000   -0.084663    0.000000   46.504319
    0.073320   -0.042331    0.000000   46.504319
   -0.073320   -0.042331    0.000000   46.504319
    0.073320    0.042331    0.000000   46.504319
   -0.073320    0.042331    0.000000   46.504319
   -0.000000    0.084663    0.000000   46.504319
    0.000000    0.000000    0.202247   12.223787
    0.000000    0.000000   -0.202247   12.223787
    0.000000   -0.084663    0.000000   46.504319
    0.073320   -0.042331    0.000000   46.504319
   -0.073320   -0.042331    0.000000   46.504319
    0.073320    0.042331    0.000000   46.504319
   -0.073320    0.042331    0.000000   46.504319
   -0.000000    0.084663    0.000000   46.504319
    0.000000    0.000000    0.202247   12.223787
    0.000000    0.000000   -0.202247   12.223787
    0.000000   -0.084663    0.000000   46.504319
    0.073320   -0.042331    0.000000   46.504319
   -0.073320   -0.042331    0.000000   46.504319
    0.073320    0.042331    0.000000   46.504319
   -0.073320    0.042331    0.000000   46.504319
   -0.000000    0.084663    0.000000   46.504319
    0.000000    0.000000    0.202247   12.223787
    0.000000    0.000000   -0.202247   12.223787
    0.000000   -0.084663    0.000000   46.504319
    0.073320   -0.042331    0.000000   46.504319
   -0.073320   -0.042331    0.000000   46.504319
    0.073320    0.042331    0.000000   46.504319
   -0.073320    0.042331    0.000000   46.504319
   -0.000000    0.084663    0.000000   46.504319
    0.000000    0.000000    0.202247   12.223787
    0.000000    0.000000   -0.202247   12.223787
    0.000000   -0.084663    0.000000   46.504319
    0.073320   -0.042331    0.000000   46.504319
   -0.073320   -0.042331    0.000000   46.504319
    0.073320    0.042331    0.000000   46.504319
   -0.073320    0.042331    0.000000   46.504319
   -0.000000    0.084663    0.000000   46.504319
    0.000000    0.000000    0.202247   12.223787
    0.000000    0.000000   -0.202247   12.223787
    0.073320   -0.042331    0.000000   46.504319
    0.000000   -0.084663    0.000000   46.504319
    0.073320    0.042331    0.000000   46.504319
   -0.073320   -0.042331    0.000000   46.504319
   -0.073320    0.042331    0.000000   46.504319
   -0.000000    0.084663    0.000000   46.504319
    0.000000    0.000000    0.202247   12.223787
    0.000000    0.000000   -0.202247   12.223787
   -0.000000    0.084663    0.000000   46.504319
   -0.073320    0.042331    0.000000   46.504319
    0.000000   -0.084663    0.000000   46.504319
    0.073320   -0.042331    0.000000   46.504319
    0.073320    0.042331    0.000000   46.504319
   -0.073320   -0.042331    0.000000   46.504319
    0.000000    0.000000    0.202247   12.223787
    0.000000    0.000000   -0.202247   12.223787
   -0.073320    0.042331    0.000000   46.504319
   -0.000000    0.084663    0.000000   46.504319
    0.000000   -0.084663    0.000000   46.504319
    0.073320   -0.042331    0.000000   46.504319
   -0.073320   -0.042331    0.000000   46.504319
    0.073320    0.042331    0.000000   46.504319
    0.000000    0.000000    0.202247   12.223787
    0.000000    0.000000   -0.202247   12.223787
   -0.073320    0.042331    0.000000   46.504319
   -0.000000    0.084663    0.000000   46.504319
    0.000000   -0.084663    0.000000   46.504319
    0.073320   -0.042331    0.000000   46.504319
   -0.073320   -0.042331    0.000000   46.504319
    0.073320    0.042331    0.000000   46.504319
    0.000000    0.000000    0.202247   12.223787
    0.000000    0.000000   -0.202247   12.223787
   -0.073320    0.042331    0.000000   46.504319
   -0.000000    0.084663    0.000000   46.504319
    0.000000   -0.084663    0.000000   46.504319
    0.073320   -0.042331    0.000000   46.504319
   -0.073320   -0.042331    0.000000   46.504319
    0.073320    0.042331    0.000000   46.504319
    0.000000    0.000000    0.202247   12.223787
    0.000000    0.000000   -0.202247   12.223787
   -0.073320    0.042331    0.000000   46.504319
   -0.000000    0.084663    0.000000   46.504319
    0.000000   -0.084663    0.000000   46.504319
    0.073320   -0.042331    0.000000   46.504319
   -0.073320   -0.042331    0.000000   46.504319
    0.073320    0.042331    0.000000   46.504319
    0.000000    0.000000    0.202247   12.223787
    0.000000    0.000000   -0.202247   12.223787
   -0.073320    0.042331    0.000000   46.504319
   -0.000000    0.084663    0.000000   46.504319
    0.000000   -0.084663    0.000000   46.504319
    0.073320   -0.042331    0.000000   46.504319
   -0.073320   -0.042331    0.000000   46.504319
    0.073320    0.042331    0.000000   46.504319
    0.000000    0.000000    0.202247   12.223787
    0.000000    0.000000   -0.202247   12.223787
   -0.073320    0.042331    0.000000   46.504319
   -0.000000    0.084663    0.000000   46.504319
    0.000000   -0.084663    0.000000   46.504319
    0.073320   -0.042331    0.000000   46.504319
   -0.073320   -0.042331    0.000000   46.504319
    0.073320    0.042331    0.000000   46.504319
    0.000000    0.000000    0.202247   12.223787
    0.000000    0.000000   -0.202247   12.223787
   -0.073320    0.042331    0.000000   46.504319
   -0.000000    0.084663    0.000000   46.504319
    0.000000   -0.084663    0.000000   46.504319
    0.073320   -0.042331    0.000000   46.504319
   -0.073320   -0.042331    0.000000   46.504319
    0.073320    0.042331    0.000000   46.504319
    0.000000    0.000000    0.202247   12.223787
    0.000000    0.000000   -0.202247   12.223787
   -0.073320    0.042331    0.000000   46.504319
   -0.000000    0.084663    0.000000   46.504319
    0.000000   -0.084663    0.000000   46.504319
    0.073320   -0.042331    0.000000   46.504319
   -0.073320   -0.042331    0.000000   46.504319
    0.073320    0.042331    0.000000   46.504319
    0.000000    0.000000    0.202247   12.223787
    0.000000    0.000000   -0.202247   12.223787
   -0.073320    0.042331    0.000000   46.504319
   -0.000000    0.084663    0.000000   46.504319
    0.000000   -0.084663    0.000000   46.504319
    0.073320   -0.042331    0.000000   46.504319
   -0.073320   -0.042331    0.000000   46.504319
    0.073320    0.042331    0.000000   46.504319
    0.000000    0.000000    0.202247   12.223787
    0.000000    0.000000   -0.202247   12.223787
   -0.073320    0.042331    0.000000   46.504319
   -0.000000    0.084663    0.000000   46.504319
    0.000000   -0.084663    0.000000   46.504319
    0.073320   -0.042331    0.000000   46.504319
   -0.073320   -0.042331    0.000000   46.504319
    0.073320    0.042331    0.000000   46.504319
    0.000000    0.000000    0.202247   12.223787
    0.000000    0.000000   -0.202247   12.223787
   -0.073320    0.042331    0.000000   46.504319
   -0.000000    0.084663    0.000000   46.504319
    0.000000   -0.084663    0.000000   46.504319
    0.073320   -0.042331    0.000000   46.504319
   -0.073320   -0.042331    0.000000   46.504319
    0.073320    0.042331    0.000000   46.504319
    0.000000    0.000000    0.202247   12.223787
    0.000000    0.000000   -0.202247   12.223787
   -0.073320    0.042331    0.000000   46.504319
   -0.000000    0.084663    0.000000   46.504319
    0.000000   -0.084663    0.000000   46.504319
   -0.073320   -0.042331    0.000000   46.504319
    0.073320   -0.042331    0.000000   46.504319
    0.073320    0.042331    0.000000   46.504319
    0.000000    0.000000    0.202247   12.223787
    0.000000    0.000000   -0.202247   12.223787
   -0.000000    0.084663    0.000000   46.504319
    0.000000   -0.084663    0.000000   46.504319
    0.073320   -0.042331    0.000000   46.504319
    0.073320    0.042331    0.000000   46.504319
   -0.073320    0.042331    0.000000   46.504319
   -0.073320   -0.042331    0.000000   46.504319
    0.000000    0.000000    0.202247   12.223787
    0.000000    0.000000   -0.202247   12.223787
   -0.073320    0.042331    0.000000   46.504319
   -0.000000    0.084663    0.000000   46.504319
    0.000000   -0.084663    0.000000   46.504319
    0.073320   -0.042331    0.000000   46.504319
   -0.073320   -0.042331    0.000000   46.504319
    0.073320    0.042331    0.000000   46.504319
    0.000000    0.000000    0.202247   12.223787
    0.000000    0.000000   -0.202247   12.223787
   -0.073320    0.042331    0.000000   46.504319
   -0.000000    0.084663    0.000000   46.504319
    0.000000   -0.084663    0.000000   46.504319
    0.073320   -0.042331    0.000000   46.504319
   -0.073320   -0.042331    0.000000   46.504319
    0.073320    0.042331    0.000000   46.504319
    0.000000    0.000000    0.202247   12.223787
    0.000000    0.000000   -0.202247   12.223787
   -0.073320    0.042331    0.000000   46.504319
   -0.000000    0.084663    0.000000   46.504319
    0.000000   -0.084663    0.000000   46.504319
    0.073320   -0.042331    0.000000   46.504319
   -0.073320   -0.042331    0.000000   46.504319
    0.073320    0.042331    0.000000   46.504319
    0.000000    0.000000    0.202247   12.223787
    0.000000    0.000000   -0.202247   12.223787
   -0.073320    0.042331    0.000000   46.504319
   -0.000000    0.084663    0.000000   46.504319
    0.000000   -0.084663    0.000000   46.504319
    0.073320   -0.042331    0.000000   46.504319
   -0.073320   -0.042331    0.000000   46.504319
    0.073320    0.042331    0.000000   46.504319
    0.000000    0.000000    0.202247   12.223787
    0.000000    0.000000   -0.202247   12.223787
   -0.073320    0.042331    0.000000   46.504319
   -0.000000    0.084663    0.000000   46.504319
    0.000000   -0.084663    0.000000   46.504319
    0.073320   -0.042331    0.000000   46.504319
   -0.073320   -0.042331    0.000000   46.504319
    0.073320    0.042331    0.000000   46.504319
    0.000000    0.000000    0.202247   12.223787
    0.000000    0.000000   -0.202247   12.223787
   -0.073320    0.042331    0.000000   46.504319
   -0.000000    0.084663    0.000000   46.504319
    0.000000   -0.084663    0.000000   46.504319
    0.073320   -0.042331    0.000000   46.504319
   -0.073320   -0.042331    0.000000   46.504319
    0.073320    0.042331    0.000000   46.504319
    0.000000    0.000000    0.202247   12.223787
    0.000000    0.000000   -0.202247   12.223787
   -0.073320    0.042331    0.000000   46.504319
   -0.000000    0.084663    0.000000   46.504319
    0.000000   -0.084663    0.000000   46.504319
    0.073320   -0.042331    0.000000   46.504319
   -0.073320   -0.042331    0.000000   46.504319
    0.073320    0.042331    0.000000   46.504319
    0.000000    0.000000    0.202247   12.223787
    0.000000    0.000000   -0.202247   12.223787
   -0.073320    0.042331    0.000000   46.504319
   -0.000000    0.084663    0.000000   46.504319
    0.000000   -0.084663    0.000000   46.504319
    0.073320   -0.042331    0.000000   46.504319
   -0.073320   -0.042331    0.000000   46.504319
    0.073320    0.042331    0.000000   46.504319
    0.000000    0.000000    0.202247   12.223787
    0.000000    0.000000   -0.202247   12.223787
   -0.073320    0.042331    0.000000   46.504319
   -0.000000    0.084663    0.000000   46.504319
    0.000000   -0.084663    0.000000   46.504319
    0.073320   -0.042331    0.000000   46.504319
   -0.073320   -0.042331    0.000000   46.504319
    0.073320    0.042331    0.000000   46.504319
    0.000000    0.000000    0.202247   12.223787
    0.000000    0.000000   -0.202247   12.223787
   -0.073320    0.042331    0.000000   46.504319
   -0.000000    0.084663    0.000000   46.504319
    0.000000   -0.084663    0.000000   46.504319
    0.073320   -0.042331    0.000000   46.504319
   -0.073320   -0.042331    0.000000   46.504319
    0.073320    0.042331    0.000000   46.504319
    0.000000    0.000000    0.202247   12.223787
    0.000000    0.000000   -0.202247   12.223787
   -0.073320    0.042331    0.000000   46.504319
   -0.000000    0.084663    0.000000   46.504319
    0.073320   -0.042331    0.000000   46.504319
    0.000000   -0.084663    0.000000   46.504319
    0.073320    0.042331    0.000000   46.504319
   -0.073320   -0.042331    0.000000   46.504319
    0.000000    0.000000    0.202247   12.223787
    0.000000    0.000000   -0.202247   12.223787
