 
             +---------------------------------------------------+
             |                                                   |
             |                   WANNIER90                       |
             |                                                   |
             +---------------------------------------------------+
             |                                                   |
             |        Welcome to the Maximally-Localized         |
             |        Generalized Wannier Functions code         |
             |            http://www.wannier.org                 |
             |                                                   |
             |                                                   |
             |  Wannier90 Developer Group:                       |
             |    Giovanni Pizzi    (EPFL)                       |
             |    Valerio Vitale    (Cambridge)                  |
             |    David Vanderbilt  (Rutgers University)         |
             |    Nicola Marzari    (EPFL)                       |
             |    Ivo Souza         (Universidad del Pais Vasco) |
             |    Arash A. Mostofi  (Imperial College London)    |
             |    Jonathan R. Yates (University of Oxford)       |
             |                                                   |
             |  For the full list of Wannier90 3.x authors,      |
             |  please check the code documentation and the      |
             |  README on the GitHub page of the code            |
             |                                                   |
             |                                                   |
             |  Please cite                                      |
             |                                                   |
             |  [ref] "Wannier90 as a community code:            |
             |        new features and applications",            |
             |        G. Pizzi et al., J. Phys. Cond. Matt. 32,  |
             |        165902 (2020).                             |
             |        http://doi.org/10.1088/1361-648X/ab51ff    |
             |                                                   |
             |  in any publications arising from the use of      |
             |  this code. For the method please cite            |
             |                                                   |
             |  [ref] "Maximally Localized Generalised Wannier   |
             |         Functions for Composite Energy Bands"     |
             |         N. Marzari and D. Vanderbilt              |
             |         Phys. Rev. B 56 12847 (1997)              |
             |                                                   |
             |  [ref] "Maximally Localized Wannier Functions     |
             |         for Entangled Energy Bands"               |
             |         I. Souza, N. Marzari and D. Vanderbilt    |
             |         Phys. Rev. B 65 035109 (2001)             |
             |                                                   |
             |                                                   |
             | Copyright (c) 1996-2020                           |
             |        The Wannier90 Developer Group and          |
             |        individual contributors                    |
             |                                                   |
             |      Release: 3.1.0        5th March    2020      |
             |                                                   |
             | This program is free software; you can            |
             | redistribute it and/or modify it under the terms  |
             | of the GNU General Public License as published by |
             | the Free Software Foundation; either version 2 of |
             | the License, or (at your option) any later version|
             |                                                   |
             | This program is distributed in the hope that it   |
             | will be useful, but WITHOUT ANY WARRANTY; without |
             | even the implied warranty of MERCHANTABILITY or   |
             | FITNESS FOR A PARTICULAR PURPOSE. See the GNU     |
             | General Public License for more details.          |
             |                                                   |
             | You should have received a copy of the GNU General|
             | Public License along with this program; if not,   |
             | write to the Free Software Foundation, Inc.,      |
             | 675 Mass Ave, Cambridge, MA 02139, USA.           |
             |                                                   |
             +---------------------------------------------------+
             |    Execution started on 25Dec2023 at 18:36:38     |
             +---------------------------------------------------+
 
 ******************************************************************************
 * -> Using CODATA 2006 constant values                                       *
 *    (http://physics.nist.gov/cuu/Constants/index.html)                      *
 * -> Using Bohr value from CODATA                                            *
 ******************************************************************************
 

 Running in parallel on  64 CPUs

 
                                    ------
                                    SYSTEM
                                    ------
 
                              Lattice Vectors (Ang)
                    a_1     3.427808   0.000000   0.000000
                    a_2    -1.713904   2.968569   0.000000
                    a_3     0.000000   0.000000  31.066889
 
                   Unit Cell Volume:     316.12686  (Ang^3)
 
                        Reciprocal-Space Vectors (Ang^-1)
                    b_1     1.833004   1.058285   0.000000
                    b_2    -0.000000   2.116570   0.000000
                    b_3     0.000000   0.000000   0.202247
  
 *----------------------------------------------------------------------------*
 |   Site       Fractional Coordinate          Cartesian Coordinate (Ang)     |
 +----------------------------------------------------------------------------+
 | Cr   1   0.00000   0.00000   0.10924   |    0.00000   0.00000   3.39361    |
 | S    1   0.66667   0.33333   0.06911   |    1.71391   0.98952   2.14694    |
 | Te   1   0.33333   0.66667   0.17479   |    0.00000   1.97905   5.43024    |
 *----------------------------------------------------------------------------*
                                -----------
                                PROJECTIONS
                                -----------
  
 +----------------------------------------------------------------------------+
 |     Frac. Coord.   l mr  r        z-axis               x-axis          Z/a |
 +----------------------------------------------------------------------------+
 |  0.00  0.00  0.11  2  1  1  0.000  0.000  1.000  1.000  0.000  0.000   1.0 |
 |  0.00  0.00  0.11  2  1  1  0.000  0.000  1.000  1.000  0.000  0.000   1.0 |
 |  0.00  0.00  0.11  2  2  1  0.000  0.000  1.000  1.000  0.000  0.000   1.0 |
 |  0.00  0.00  0.11  2  2  1  0.000  0.000  1.000  1.000  0.000  0.000   1.0 |
 |  0.00  0.00  0.11  2  3  1  0.000  0.000  1.000  1.000  0.000  0.000   1.0 |
 |  0.00  0.00  0.11  2  3  1  0.000  0.000  1.000  1.000  0.000  0.000   1.0 |
 |  0.00  0.00  0.11  2  4  1  0.000  0.000  1.000  1.000  0.000  0.000   1.0 |
 |  0.00  0.00  0.11  2  4  1  0.000  0.000  1.000  1.000  0.000  0.000   1.0 |
 |  0.00  0.00  0.11  2  5  1  0.000  0.000  1.000  1.000  0.000  0.000   1.0 |
 |  0.00  0.00  0.11  2  5  1  0.000  0.000  1.000  1.000  0.000  0.000   1.0 |
 |  0.67  0.33  0.07  1  1  1  0.000  0.000  1.000  1.000  0.000  0.000   1.0 |
 |  0.67  0.33  0.07  1  1  1  0.000  0.000  1.000  1.000  0.000  0.000   1.0 |
 |  0.67  0.33  0.07  1  2  1  0.000  0.000  1.000  1.000  0.000  0.000   1.0 |
 |  0.67  0.33  0.07  1  2  1  0.000  0.000  1.000  1.000  0.000  0.000   1.0 |
 |  0.67  0.33  0.07  1  3  1  0.000  0.000  1.000  1.000  0.000  0.000   1.0 |
 |  0.67  0.33  0.07  1  3  1  0.000  0.000  1.000  1.000  0.000  0.000   1.0 |
 |  0.33  0.67  0.17  1  1  1  0.000  0.000  1.000  1.000  0.000  0.000   1.0 |
 |  0.33  0.67  0.17  1  1  1  0.000  0.000  1.000  1.000  0.000  0.000   1.0 |
 |  0.33  0.67  0.17  1  2  1  0.000  0.000  1.000  1.000  0.000  0.000   1.0 |
 |  0.33  0.67  0.17  1  2  1  0.000  0.000  1.000  1.000  0.000  0.000   1.0 |
 |  0.33  0.67  0.17  1  3  1  0.000  0.000  1.000  1.000  0.000  0.000   1.0 |
 |  0.33  0.67  0.17  1  3  1  0.000  0.000  1.000  1.000  0.000  0.000   1.0 |
 +----------------------------------------------------------------------------+
  
                                ------------
                                K-POINT GRID
                                ------------
  
             Grid size = 25 x 25 x  1      Total points =  625
  
 *----------------------------------------------------------------------------*
 | k-point      Fractional Coordinate        Cartesian Coordinate (Ang^-1)    |
 +----------------------------------------------------------------------------+
 |     1    0.00000   0.00000   0.00000   |    0.00000   0.00000   0.00000    |
 |     2    0.04000   0.00000   0.00000   |    0.07332   0.04233   0.00000    |
 |     3    0.08000   0.00000   0.00000   |    0.14664   0.08466   0.00000    |
 |     4    0.12000   0.00000   0.00000   |    0.21996   0.12699   0.00000    |
 |     5    0.16000   0.00000   0.00000   |    0.29328   0.16933   0.00000    |
 |     6    0.20000   0.00000   0.00000   |    0.36660   0.21166   0.00000    |
 |     7    0.24000   0.00000   0.00000   |    0.43992   0.25399   0.00000    |
 |     8    0.28000   0.00000   0.00000   |    0.51324   0.29632   0.00000    |
 |     9    0.32000   0.00000   0.00000   |    0.58656   0.33865   0.00000    |
 |    10    0.36000   0.00000   0.00000   |    0.65988   0.38098   0.00000    |
 |    11    0.40000   0.00000   0.00000   |    0.73320   0.42331   0.00000    |
 |    12    0.44000   0.00000   0.00000   |    0.80652   0.46565   0.00000    |
 |    13    0.48000   0.00000   0.00000   |    0.87984   0.50798   0.00000    |
 |    14   -0.48000   0.00000   0.00000   |   -0.87984  -0.50798   0.00000    |
 |    15   -0.44000   0.00000   0.00000   |   -0.80652  -0.46565   0.00000    |
 |    16   -0.40000   0.00000   0.00000   |   -0.73320  -0.42331   0.00000    |
 |    17   -0.36000   0.00000   0.00000   |   -0.65988  -0.38098   0.00000    |
 |    18   -0.32000   0.00000   0.00000   |   -0.58656  -0.33865   0.00000    |
 |    19   -0.28000   0.00000   0.00000   |   -0.51324  -0.29632   0.00000    |
 |    20   -0.24000   0.00000   0.00000   |   -0.43992  -0.25399   0.00000    |
 |    21   -0.20000   0.00000   0.00000   |   -0.36660  -0.21166   0.00000    |
 |    22   -0.16000   0.00000   0.00000   |   -0.29328  -0.16933   0.00000    |
 |    23   -0.12000   0.00000   0.00000   |   -0.21996  -0.12699   0.00000    |
 |    24   -0.08000   0.00000   0.00000   |   -0.14664  -0.08466   0.00000    |
 |    25   -0.04000   0.00000   0.00000   |   -0.07332  -0.04233   0.00000    |
 |    26    0.00000   0.04000   0.00000   |   -0.00000   0.08466   0.00000    |
 |    27    0.04000   0.04000   0.00000   |    0.07332   0.12699   0.00000    |
 |    28    0.08000   0.04000   0.00000   |    0.14664   0.16933   0.00000    |
 |    29    0.12000   0.04000   0.00000   |    0.21996   0.21166   0.00000    |
 |    30    0.16000   0.04000   0.00000   |    0.29328   0.25399   0.00000    |
 |    31    0.20000   0.04000   0.00000   |    0.36660   0.29632   0.00000    |
 |    32    0.24000   0.04000   0.00000   |    0.43992   0.33865   0.00000    |
 |    33    0.28000   0.04000   0.00000   |    0.51324   0.38098   0.00000    |
 |    34    0.32000   0.04000   0.00000   |    0.58656   0.42331   0.00000    |
 |    35    0.36000   0.04000   0.00000   |    0.65988   0.46565   0.00000    |
 |    36    0.40000   0.04000   0.00000   |    0.73320   0.50798   0.00000    |
 |    37    0.44000   0.04000   0.00000   |    0.80652   0.55031   0.00000    |
 |    38    0.48000   0.04000   0.00000   |    0.87984   0.59264   0.00000    |
 |    39   -0.48000   0.04000   0.00000   |   -0.87984  -0.42331   0.00000    |
 |    40   -0.44000   0.04000   0.00000   |   -0.80652  -0.38098   0.00000    |
 |    41   -0.40000   0.04000   0.00000   |   -0.73320  -0.33865   0.00000    |
 |    42   -0.36000   0.04000   0.00000   |   -0.65988  -0.29632   0.00000    |
 |    43   -0.32000   0.04000   0.00000   |   -0.58656  -0.25399   0.00000    |
 |    44   -0.28000   0.04000   0.00000   |   -0.51324  -0.21166   0.00000    |
 |    45   -0.24000   0.04000   0.00000   |   -0.43992  -0.16933   0.00000    |
 |    46   -0.20000   0.04000   0.00000   |   -0.36660  -0.12699   0.00000    |
 |    47   -0.16000   0.04000   0.00000   |   -0.29328  -0.08466   0.00000    |
 |    48   -0.12000   0.04000   0.00000   |   -0.21996  -0.04233   0.00000    |
 |    49   -0.08000   0.04000   0.00000   |   -0.14664  -0.00000   0.00000    |
 |    50   -0.04000   0.04000   0.00000   |   -0.07332   0.04233   0.00000    |
 |    51    0.00000   0.08000   0.00000   |   -0.00000   0.16933   0.00000    |
 |    52    0.04000   0.08000   0.00000   |    0.07332   0.21166   0.00000    |
 |    53    0.08000   0.08000   0.00000   |    0.14664   0.25399   0.00000    |
 |    54    0.12000   0.08000   0.00000   |    0.21996   0.29632   0.00000    |
 |    55    0.16000   0.08000   0.00000   |    0.29328   0.33865   0.00000    |
 |    56    0.20000   0.08000   0.00000   |    0.36660   0.38098   0.00000    |
 |    57    0.24000   0.08000   0.00000   |    0.43992   0.42331   0.00000    |
 |    58    0.28000   0.08000   0.00000   |    0.51324   0.46565   0.00000    |
 |    59    0.32000   0.08000   0.00000   |    0.58656   0.50798   0.00000    |
 |    60    0.36000   0.08000   0.00000   |    0.65988   0.55031   0.00000    |
 |    61    0.40000   0.08000   0.00000   |    0.73320   0.59264   0.00000    |
 |    62    0.44000   0.08000   0.00000   |    0.80652   0.63497   0.00000    |
 |    63    0.48000   0.08000   0.00000   |    0.87984   0.67730   0.00000    |
 |    64   -0.48000   0.08000   0.00000   |   -0.87984  -0.33865   0.00000    |
 |    65   -0.44000   0.08000   0.00000   |   -0.80652  -0.29632   0.00000    |
 |    66   -0.40000   0.08000   0.00000   |   -0.73320  -0.25399   0.00000    |
 |    67   -0.36000   0.08000   0.00000   |   -0.65988  -0.21166   0.00000    |
 |    68   -0.32000   0.08000   0.00000   |   -0.58656  -0.16933   0.00000    |
 |    69   -0.28000   0.08000   0.00000   |   -0.51324  -0.12699   0.00000    |
 |    70   -0.24000   0.08000   0.00000   |   -0.43992  -0.08466   0.00000    |
 |    71   -0.20000   0.08000   0.00000   |   -0.36660  -0.04233   0.00000    |
 |    72   -0.16000   0.08000   0.00000   |   -0.29328  -0.00000   0.00000    |
 |    73   -0.12000   0.08000   0.00000   |   -0.21996   0.04233   0.00000    |
 |    74   -0.08000   0.08000   0.00000   |   -0.14664   0.08466   0.00000    |
 |    75   -0.04000   0.08000   0.00000   |   -0.07332   0.12699   0.00000    |
 |    76    0.00000   0.12000   0.00000   |   -0.00000   0.25399   0.00000    |
 |    77    0.04000   0.12000   0.00000   |    0.07332   0.29632   0.00000    |
 |    78    0.08000   0.12000   0.00000   |    0.14664   0.33865   0.00000    |
 |    79    0.12000   0.12000   0.00000   |    0.21996   0.38098   0.00000    |
 |    80    0.16000   0.12000   0.00000   |    0.29328   0.42331   0.00000    |
 |    81    0.20000   0.12000   0.00000   |    0.36660   0.46565   0.00000    |
 |    82    0.24000   0.12000   0.00000   |    0.43992   0.50798   0.00000    |
 |    83    0.28000   0.12000   0.00000   |    0.51324   0.55031   0.00000    |
 |    84    0.32000   0.12000   0.00000   |    0.58656   0.59264   0.00000    |
 |    85    0.36000   0.12000   0.00000   |    0.65988   0.63497   0.00000    |
 |    86    0.40000   0.12000   0.00000   |    0.73320   0.67730   0.00000    |
 |    87    0.44000   0.12000   0.00000   |    0.80652   0.71963   0.00000    |
 |    88    0.48000   0.12000   0.00000   |    0.87984   0.76197   0.00000    |
 |    89   -0.48000   0.12000   0.00000   |   -0.87984  -0.25399   0.00000    |
 |    90   -0.44000   0.12000   0.00000   |   -0.80652  -0.21166   0.00000    |
 |    91   -0.40000   0.12000   0.00000   |   -0.73320  -0.16933   0.00000    |
 |    92   -0.36000   0.12000   0.00000   |   -0.65988  -0.12699   0.00000    |
 |    93   -0.32000   0.12000   0.00000   |   -0.58656  -0.08466   0.00000    |
 |    94   -0.28000   0.12000   0.00000   |   -0.51324  -0.04233   0.00000    |
 |    95   -0.24000   0.12000   0.00000   |   -0.43992  -0.00000   0.00000    |
 |    96   -0.20000   0.12000   0.00000   |   -0.36660   0.04233   0.00000    |
 |    97   -0.16000   0.12000   0.00000   |   -0.29328   0.08466   0.00000    |
 |    98   -0.12000   0.12000   0.00000   |   -0.21996   0.12699   0.00000    |
 |    99   -0.08000   0.12000   0.00000   |   -0.14664   0.16933   0.00000    |
 |   100   -0.04000   0.12000   0.00000   |   -0.07332   0.21166   0.00000    |
 |   101    0.00000   0.16000   0.00000   |   -0.00000   0.33865   0.00000    |
 |   102    0.04000   0.16000   0.00000   |    0.07332   0.38098   0.00000    |
 |   103    0.08000   0.16000   0.00000   |    0.14664   0.42331   0.00000    |
 |   104    0.12000   0.16000   0.00000   |    0.21996   0.46565   0.00000    |
 |   105    0.16000   0.16000   0.00000   |    0.29328   0.50798   0.00000    |
 |   106    0.20000   0.16000   0.00000   |    0.36660   0.55031   0.00000    |
 |   107    0.24000   0.16000   0.00000   |    0.43992   0.59264   0.00000    |
 |   108    0.28000   0.16000   0.00000   |    0.51324   0.63497   0.00000    |
 |   109    0.32000   0.16000   0.00000   |    0.58656   0.67730   0.00000    |
 |   110    0.36000   0.16000   0.00000   |    0.65988   0.71963   0.00000    |
 |   111    0.40000   0.16000   0.00000   |    0.73320   0.76197   0.00000    |
 |   112    0.44000   0.16000   0.00000   |    0.80652   0.80430   0.00000    |
 |   113    0.48000   0.16000   0.00000   |    0.87984   0.84663   0.00000    |
 |   114   -0.48000   0.16000   0.00000   |   -0.87984  -0.16933   0.00000    |
 |   115   -0.44000   0.16000   0.00000   |   -0.80652  -0.12699   0.00000    |
 |   116   -0.40000   0.16000   0.00000   |   -0.73320  -0.08466   0.00000    |
 |   117   -0.36000   0.16000   0.00000   |   -0.65988  -0.04233   0.00000    |
 |   118   -0.32000   0.16000   0.00000   |   -0.58656  -0.00000   0.00000    |
 |   119   -0.28000   0.16000   0.00000   |   -0.51324   0.04233   0.00000    |
 |   120   -0.24000   0.16000   0.00000   |   -0.43992   0.08466   0.00000    |
 |   121   -0.20000   0.16000   0.00000   |   -0.36660   0.12699   0.00000    |
 |   122   -0.16000   0.16000   0.00000   |   -0.29328   0.16933   0.00000    |
 |   123   -0.12000   0.16000   0.00000   |   -0.21996   0.21166   0.00000    |
 |   124   -0.08000   0.16000   0.00000   |   -0.14664   0.25399   0.00000    |
 |   125   -0.04000   0.16000   0.00000   |   -0.07332   0.29632   0.00000    |
 |   126    0.00000   0.20000   0.00000   |   -0.00000   0.42331   0.00000    |
 |   127    0.04000   0.20000   0.00000   |    0.07332   0.46565   0.00000    |
 |   128    0.08000   0.20000   0.00000   |    0.14664   0.50798   0.00000    |
 |   129    0.12000   0.20000   0.00000   |    0.21996   0.55031   0.00000    |
 |   130    0.16000   0.20000   0.00000   |    0.29328   0.59264   0.00000    |
 |   131    0.20000   0.20000   0.00000   |    0.36660   0.63497   0.00000    |
 |   132    0.24000   0.20000   0.00000   |    0.43992   0.67730   0.00000    |
 |   133    0.28000   0.20000   0.00000   |    0.51324   0.71963   0.00000    |
 |   134    0.32000   0.20000   0.00000   |    0.58656   0.76197   0.00000    |
 |   135    0.36000   0.20000   0.00000   |    0.65988   0.80430   0.00000    |
 |   136    0.40000   0.20000   0.00000   |    0.73320   0.84663   0.00000    |
 |   137    0.44000   0.20000   0.00000   |    0.80652   0.88896   0.00000    |
 |   138    0.48000   0.20000   0.00000   |    0.87984   0.93129   0.00000    |
 |   139   -0.48000   0.20000   0.00000   |   -0.87984  -0.08466   0.00000    |
 |   140   -0.44000   0.20000   0.00000   |   -0.80652  -0.04233   0.00000    |
 |   141   -0.40000   0.20000   0.00000   |   -0.73320  -0.00000   0.00000    |
 |   142   -0.36000   0.20000   0.00000   |   -0.65988   0.04233   0.00000    |
 |   143   -0.32000   0.20000   0.00000   |   -0.58656   0.08466   0.00000    |
 |   144   -0.28000   0.20000   0.00000   |   -0.51324   0.12699   0.00000    |
 |   145   -0.24000   0.20000   0.00000   |   -0.43992   0.16933   0.00000    |
 |   146   -0.20000   0.20000   0.00000   |   -0.36660   0.21166   0.00000    |
 |   147   -0.16000   0.20000   0.00000   |   -0.29328   0.25399   0.00000    |
 |   148   -0.12000   0.20000   0.00000   |   -0.21996   0.29632   0.00000    |
 |   149   -0.08000   0.20000   0.00000   |   -0.14664   0.33865   0.00000    |
 |   150   -0.04000   0.20000   0.00000   |   -0.07332   0.38098   0.00000    |
 |   151    0.00000   0.24000   0.00000   |   -0.00000   0.50798   0.00000    |
 |   152    0.04000   0.24000   0.00000   |    0.07332   0.55031   0.00000    |
 |   153    0.08000   0.24000   0.00000   |    0.14664   0.59264   0.00000    |
 |   154    0.12000   0.24000   0.00000   |    0.21996   0.63497   0.00000    |
 |   155    0.16000   0.24000   0.00000   |    0.29328   0.67730   0.00000    |
 |   156    0.20000   0.24000   0.00000   |    0.36660   0.71963   0.00000    |
 |   157    0.24000   0.24000   0.00000   |    0.43992   0.76197   0.00000    |
 |   158    0.28000   0.24000   0.00000   |    0.51324   0.80430   0.00000    |
 |   159    0.32000   0.24000   0.00000   |    0.58656   0.84663   0.00000    |
 |   160    0.36000   0.24000   0.00000   |    0.65988   0.88896   0.00000    |
 |   161    0.40000   0.24000   0.00000   |    0.73320   0.93129   0.00000    |
 |   162    0.44000   0.24000   0.00000   |    0.80652   0.97362   0.00000    |
 |   163    0.48000   0.24000   0.00000   |    0.87984   1.01595   0.00000    |
 |   164   -0.48000   0.24000   0.00000   |   -0.87984  -0.00000   0.00000    |
 |   165   -0.44000   0.24000   0.00000   |   -0.80652   0.04233   0.00000    |
 |   166   -0.40000   0.24000   0.00000   |   -0.73320   0.08466   0.00000    |
 |   167   -0.36000   0.24000   0.00000   |   -0.65988   0.12699   0.00000    |
 |   168   -0.32000   0.24000   0.00000   |   -0.58656   0.16933   0.00000    |
 |   169   -0.28000   0.24000   0.00000   |   -0.51324   0.21166   0.00000    |
 |   170   -0.24000   0.24000   0.00000   |   -0.43992   0.25399   0.00000    |
 |   171   -0.20000   0.24000   0.00000   |   -0.36660   0.29632   0.00000    |
 |   172   -0.16000   0.24000   0.00000   |   -0.29328   0.33865   0.00000    |
 |   173   -0.12000   0.24000   0.00000   |   -0.21996   0.38098   0.00000    |
 |   174   -0.08000   0.24000   0.00000   |   -0.14664   0.42331   0.00000    |
 |   175   -0.04000   0.24000   0.00000   |   -0.07332   0.46565   0.00000    |
 |   176    0.00000   0.28000   0.00000   |   -0.00000   0.59264   0.00000    |
 |   177    0.04000   0.28000   0.00000   |    0.07332   0.63497   0.00000    |
 |   178    0.08000   0.28000   0.00000   |    0.14664   0.67730   0.00000    |
 |   179    0.12000   0.28000   0.00000   |    0.21996   0.71963   0.00000    |
 |   180    0.16000   0.28000   0.00000   |    0.29328   0.76197   0.00000    |
 |   181    0.20000   0.28000   0.00000   |    0.36660   0.80430   0.00000    |
 |   182    0.24000   0.28000   0.00000   |    0.43992   0.84663   0.00000    |
 |   183    0.28000   0.28000   0.00000   |    0.51324   0.88896   0.00000    |
 |   184    0.32000   0.28000   0.00000   |    0.58656   0.93129   0.00000    |
 |   185    0.36000   0.28000   0.00000   |    0.65988   0.97362   0.00000    |
 |   186    0.40000   0.28000   0.00000   |    0.73320   1.01595   0.00000    |
 |   187    0.44000   0.28000   0.00000   |    0.80652   1.05829   0.00000    |
 |   188    0.48000   0.28000   0.00000   |    0.87984   1.10062   0.00000    |
 |   189   -0.48000   0.28000   0.00000   |   -0.87984   0.08466   0.00000    |
 |   190   -0.44000   0.28000   0.00000   |   -0.80652   0.12699   0.00000    |
 |   191   -0.40000   0.28000   0.00000   |   -0.73320   0.16933   0.00000    |
 |   192   -0.36000   0.28000   0.00000   |   -0.65988   0.21166   0.00000    |
 |   193   -0.32000   0.28000   0.00000   |   -0.58656   0.25399   0.00000    |
 |   194   -0.28000   0.28000   0.00000   |   -0.51324   0.29632   0.00000    |
 |   195   -0.24000   0.28000   0.00000   |   -0.43992   0.33865   0.00000    |
 |   196   -0.20000   0.28000   0.00000   |   -0.36660   0.38098   0.00000    |
 |   197   -0.16000   0.28000   0.00000   |   -0.29328   0.42331   0.00000    |
 |   198   -0.12000   0.28000   0.00000   |   -0.21996   0.46565   0.00000    |
 |   199   -0.08000   0.28000   0.00000   |   -0.14664   0.50798   0.00000    |
 |   200   -0.04000   0.28000   0.00000   |   -0.07332   0.55031   0.00000    |
 |   201    0.00000   0.32000   0.00000   |   -0.00000   0.67730   0.00000    |
 |   202    0.04000   0.32000   0.00000   |    0.07332   0.71963   0.00000    |
 |   203    0.08000   0.32000   0.00000   |    0.14664   0.76197   0.00000    |
 |   204    0.12000   0.32000   0.00000   |    0.21996   0.80430   0.00000    |
 |   205    0.16000   0.32000   0.00000   |    0.29328   0.84663   0.00000    |
 |   206    0.20000   0.32000   0.00000   |    0.36660   0.88896   0.00000    |
 |   207    0.24000   0.32000   0.00000   |    0.43992   0.93129   0.00000    |
 |   208    0.28000   0.32000   0.00000   |    0.51324   0.97362   0.00000    |
 |   209    0.32000   0.32000   0.00000   |    0.58656   1.01595   0.00000    |
 |   210    0.36000   0.32000   0.00000   |    0.65988   1.05829   0.00000    |
 |   211    0.40000   0.32000   0.00000   |    0.73320   1.10062   0.00000    |
 |   212    0.44000   0.32000   0.00000   |    0.80652   1.14295   0.00000    |
 |   213    0.48000   0.32000   0.00000   |    0.87984   1.18528   0.00000    |
 |   214   -0.48000   0.32000   0.00000   |   -0.87984   0.16933   0.00000    |
 |   215   -0.44000   0.32000   0.00000   |   -0.80652   0.21166   0.00000    |
 |   216   -0.40000   0.32000   0.00000   |   -0.73320   0.25399   0.00000    |
 |   217   -0.36000   0.32000   0.00000   |   -0.65988   0.29632   0.00000    |
 |   218   -0.32000   0.32000   0.00000   |   -0.58656   0.33865   0.00000    |
 |   219   -0.28000   0.32000   0.00000   |   -0.51324   0.38098   0.00000    |
 |   220   -0.24000   0.32000   0.00000   |   -0.43992   0.42331   0.00000    |
 |   221   -0.20000   0.32000   0.00000   |   -0.36660   0.46565   0.00000    |
 |   222   -0.16000   0.32000   0.00000   |   -0.29328   0.50798   0.00000    |
 |   223   -0.12000   0.32000   0.00000   |   -0.21996   0.55031   0.00000    |
 |   224   -0.08000   0.32000   0.00000   |   -0.14664   0.59264   0.00000    |
 |   225   -0.04000   0.32000   0.00000   |   -0.07332   0.63497   0.00000    |
 |   226    0.00000   0.36000   0.00000   |   -0.00000   0.76197   0.00000    |
 |   227    0.04000   0.36000   0.00000   |    0.07332   0.80430   0.00000    |
 |   228    0.08000   0.36000   0.00000   |    0.14664   0.84663   0.00000    |
 |   229    0.12000   0.36000   0.00000   |    0.21996   0.88896   0.00000    |
 |   230    0.16000   0.36000   0.00000   |    0.29328   0.93129   0.00000    |
 |   231    0.20000   0.36000   0.00000   |    0.36660   0.97362   0.00000    |
 |   232    0.24000   0.36000   0.00000   |    0.43992   1.01595   0.00000    |
 |   233    0.28000   0.36000   0.00000   |    0.51324   1.05829   0.00000    |
 |   234    0.32000   0.36000   0.00000   |    0.58656   1.10062   0.00000    |
 |   235    0.36000   0.36000   0.00000   |    0.65988   1.14295   0.00000    |
 |   236    0.40000   0.36000   0.00000   |    0.73320   1.18528   0.00000    |
 |   237    0.44000   0.36000   0.00000   |    0.80652   1.22761   0.00000    |
 |   238    0.48000   0.36000   0.00000   |    0.87984   1.26994   0.00000    |
 |   239   -0.48000   0.36000   0.00000   |   -0.87984   0.25399   0.00000    |
 |   240   -0.44000   0.36000   0.00000   |   -0.80652   0.29632   0.00000    |
 |   241   -0.40000   0.36000   0.00000   |   -0.73320   0.33865   0.00000    |
 |   242   -0.36000   0.36000   0.00000   |   -0.65988   0.38098   0.00000    |
 |   243   -0.32000   0.36000   0.00000   |   -0.58656   0.42331   0.00000    |
 |   244   -0.28000   0.36000   0.00000   |   -0.51324   0.46565   0.00000    |
 |   245   -0.24000   0.36000   0.00000   |   -0.43992   0.50798   0.00000    |
 |   246   -0.20000   0.36000   0.00000   |   -0.36660   0.55031   0.00000    |
 |   247   -0.16000   0.36000   0.00000   |   -0.29328   0.59264   0.00000    |
 |   248   -0.12000   0.36000   0.00000   |   -0.21996   0.63497   0.00000    |
 |   249   -0.08000   0.36000   0.00000   |   -0.14664   0.67730   0.00000    |
 |   250   -0.04000   0.36000   0.00000   |   -0.07332   0.71963   0.00000    |
 |   251    0.00000   0.40000   0.00000   |   -0.00000   0.84663   0.00000    |
 |   252    0.04000   0.40000   0.00000   |    0.07332   0.88896   0.00000    |
 |   253    0.08000   0.40000   0.00000   |    0.14664   0.93129   0.00000    |
 |   254    0.12000   0.40000   0.00000   |    0.21996   0.97362   0.00000    |
 |   255    0.16000   0.40000   0.00000   |    0.29328   1.01595   0.00000    |
 |   256    0.20000   0.40000   0.00000   |    0.36660   1.05829   0.00000    |
 |   257    0.24000   0.40000   0.00000   |    0.43992   1.10062   0.00000    |
 |   258    0.28000   0.40000   0.00000   |    0.51324   1.14295   0.00000    |
 |   259    0.32000   0.40000   0.00000   |    0.58656   1.18528   0.00000    |
 |   260    0.36000   0.40000   0.00000   |    0.65988   1.22761   0.00000    |
 |   261    0.40000   0.40000   0.00000   |    0.73320   1.26994   0.00000    |
 |   262    0.44000   0.40000   0.00000   |    0.80652   1.31227   0.00000    |
 |   263    0.48000   0.40000   0.00000   |    0.87984   1.35461   0.00000    |
 |   264   -0.48000   0.40000   0.00000   |   -0.87984   0.33865   0.00000    |
 |   265   -0.44000   0.40000   0.00000   |   -0.80652   0.38098   0.00000    |
 |   266   -0.40000   0.40000   0.00000   |   -0.73320   0.42331   0.00000    |
 |   267   -0.36000   0.40000   0.00000   |   -0.65988   0.46565   0.00000    |
 |   268   -0.32000   0.40000   0.00000   |   -0.58656   0.50798   0.00000    |
 |   269   -0.28000   0.40000   0.00000   |   -0.51324   0.55031   0.00000    |
 |   270   -0.24000   0.40000   0.00000   |   -0.43992   0.59264   0.00000    |
 |   271   -0.20000   0.40000   0.00000   |   -0.36660   0.63497   0.00000    |
 |   272   -0.16000   0.40000   0.00000   |   -0.29328   0.67730   0.00000    |
 |   273   -0.12000   0.40000   0.00000   |   -0.21996   0.71963   0.00000    |
 |   274   -0.08000   0.40000   0.00000   |   -0.14664   0.76197   0.00000    |
 |   275   -0.04000   0.40000   0.00000   |   -0.07332   0.80430   0.00000    |
 |   276    0.00000   0.44000   0.00000   |   -0.00000   0.93129   0.00000    |
 |   277    0.04000   0.44000   0.00000   |    0.07332   0.97362   0.00000    |
 |   278    0.08000   0.44000   0.00000   |    0.14664   1.01595   0.00000    |
 |   279    0.12000   0.44000   0.00000   |    0.21996   1.05829   0.00000    |
 |   280    0.16000   0.44000   0.00000   |    0.29328   1.10062   0.00000    |
 |   281    0.20000   0.44000   0.00000   |    0.36660   1.14295   0.00000    |
 |   282    0.24000   0.44000   0.00000   |    0.43992   1.18528   0.00000    |
 |   283    0.28000   0.44000   0.00000   |    0.51324   1.22761   0.00000    |
 |   284    0.32000   0.44000   0.00000   |    0.58656   1.26994   0.00000    |
 |   285    0.36000   0.44000   0.00000   |    0.65988   1.31227   0.00000    |
 |   286    0.40000   0.44000   0.00000   |    0.73320   1.35461   0.00000    |
 |   287    0.44000   0.44000   0.00000   |    0.80652   1.39694   0.00000    |
 |   288    0.48000   0.44000   0.00000   |    0.87984   1.43927   0.00000    |
 |   289   -0.48000   0.44000   0.00000   |   -0.87984   0.42331   0.00000    |
 |   290   -0.44000   0.44000   0.00000   |   -0.80652   0.46565   0.00000    |
 |   291   -0.40000   0.44000   0.00000   |   -0.73320   0.50798   0.00000    |
 |   292   -0.36000   0.44000   0.00000   |   -0.65988   0.55031   0.00000    |
 |   293   -0.32000   0.44000   0.00000   |   -0.58656   0.59264   0.00000    |
 |   294   -0.28000   0.44000   0.00000   |   -0.51324   0.63497   0.00000    |
 |   295   -0.24000   0.44000   0.00000   |   -0.43992   0.67730   0.00000    |
 |   296   -0.20000   0.44000   0.00000   |   -0.36660   0.71963   0.00000    |
 |   297   -0.16000   0.44000   0.00000   |   -0.29328   0.76197   0.00000    |
 |   298   -0.12000   0.44000   0.00000   |   -0.21996   0.80430   0.00000    |
 |   299   -0.08000   0.44000   0.00000   |   -0.14664   0.84663   0.00000    |
 |   300   -0.04000   0.44000   0.00000   |   -0.07332   0.88896   0.00000    |
 |   301    0.00000   0.48000   0.00000   |   -0.00000   1.01595   0.00000    |
 |   302    0.04000   0.48000   0.00000   |    0.07332   1.05829   0.00000    |
 |   303    0.08000   0.48000   0.00000   |    0.14664   1.10062   0.00000    |
 |   304    0.12000   0.48000   0.00000   |    0.21996   1.14295   0.00000    |
 |   305    0.16000   0.48000   0.00000   |    0.29328   1.18528   0.00000    |
 |   306    0.20000   0.48000   0.00000   |    0.36660   1.22761   0.00000    |
 |   307    0.24000   0.48000   0.00000   |    0.43992   1.26994   0.00000    |
 |   308    0.28000   0.48000   0.00000   |    0.51324   1.31227   0.00000    |
 |   309    0.32000   0.48000   0.00000   |    0.58656   1.35461   0.00000    |
 |   310    0.36000   0.48000   0.00000   |    0.65988   1.39694   0.00000    |
 |   311    0.40000   0.48000   0.00000   |    0.73320   1.43927   0.00000    |
 |   312    0.44000   0.48000   0.00000   |    0.80652   1.48160   0.00000    |
 |   313    0.48000   0.48000   0.00000   |    0.87984   1.52393   0.00000    |
 |   314   -0.48000   0.48000   0.00000   |   -0.87984   0.50798   0.00000    |
 |   315   -0.44000   0.48000   0.00000   |   -0.80652   0.55031   0.00000    |
 |   316   -0.40000   0.48000   0.00000   |   -0.73320   0.59264   0.00000    |
 |   317   -0.36000   0.48000   0.00000   |   -0.65988   0.63497   0.00000    |
 |   318   -0.32000   0.48000   0.00000   |   -0.58656   0.67730   0.00000    |
 |   319   -0.28000   0.48000   0.00000   |   -0.51324   0.71963   0.00000    |
 |   320   -0.24000   0.48000   0.00000   |   -0.43992   0.76197   0.00000    |
 |   321   -0.20000   0.48000   0.00000   |   -0.36660   0.80430   0.00000    |
 |   322   -0.16000   0.48000   0.00000   |   -0.29328   0.84663   0.00000    |
 |   323   -0.12000   0.48000   0.00000   |   -0.21996   0.88896   0.00000    |
 |   324   -0.08000   0.48000   0.00000   |   -0.14664   0.93129   0.00000    |
 |   325   -0.04000   0.48000   0.00000   |   -0.07332   0.97362   0.00000    |
 |   326    0.00000  -0.48000   0.00000   |    0.00000  -1.01595   0.00000    |
 |   327    0.04000  -0.48000   0.00000   |    0.07332  -0.97362   0.00000    |
 |   328    0.08000  -0.48000   0.00000   |    0.14664  -0.93129   0.00000    |
 |   329    0.12000  -0.48000   0.00000   |    0.21996  -0.88896   0.00000    |
 |   330    0.16000  -0.48000   0.00000   |    0.29328  -0.84663   0.00000    |
 |   331    0.20000  -0.48000   0.00000   |    0.36660  -0.80430   0.00000    |
 |   332    0.24000  -0.48000   0.00000   |    0.43992  -0.76197   0.00000    |
 |   333    0.28000  -0.48000   0.00000   |    0.51324  -0.71963   0.00000    |
 |   334    0.32000  -0.48000   0.00000   |    0.58656  -0.67730   0.00000    |
 |   335    0.36000  -0.48000   0.00000   |    0.65988  -0.63497   0.00000    |
 |   336    0.40000  -0.48000   0.00000   |    0.73320  -0.59264   0.00000    |
 |   337    0.44000  -0.48000   0.00000   |    0.80652  -0.55031   0.00000    |
 |   338    0.48000  -0.48000   0.00000   |    0.87984  -0.50798   0.00000    |
 |   339   -0.48000  -0.48000   0.00000   |   -0.87984  -1.52393   0.00000    |
 |   340   -0.44000  -0.48000   0.00000   |   -0.80652  -1.48160   0.00000    |
 |   341   -0.40000  -0.48000   0.00000   |   -0.73320  -1.43927   0.00000    |
 |   342   -0.36000  -0.48000   0.00000   |   -0.65988  -1.39694   0.00000    |
 |   343   -0.32000  -0.48000   0.00000   |   -0.58656  -1.35461   0.00000    |
 |   344   -0.28000  -0.48000   0.00000   |   -0.51324  -1.31227   0.00000    |
 |   345   -0.24000  -0.48000   0.00000   |   -0.43992  -1.26994   0.00000    |
 |   346   -0.20000  -0.48000   0.00000   |   -0.36660  -1.22761   0.00000    |
 |   347   -0.16000  -0.48000   0.00000   |   -0.29328  -1.18528   0.00000    |
 |   348   -0.12000  -0.48000   0.00000   |   -0.21996  -1.14295   0.00000    |
 |   349   -0.08000  -0.48000   0.00000   |   -0.14664  -1.10062   0.00000    |
 |   350   -0.04000  -0.48000   0.00000   |   -0.07332  -1.05829   0.00000    |
 |   351    0.00000  -0.44000   0.00000   |    0.00000  -0.93129   0.00000    |
 |   352    0.04000  -0.44000   0.00000   |    0.07332  -0.88896   0.00000    |
 |   353    0.08000  -0.44000   0.00000   |    0.14664  -0.84663   0.00000    |
 |   354    0.12000  -0.44000   0.00000   |    0.21996  -0.80430   0.00000    |
 |   355    0.16000  -0.44000   0.00000   |    0.29328  -0.76197   0.00000    |
 |   356    0.20000  -0.44000   0.00000   |    0.36660  -0.71963   0.00000    |
 |   357    0.24000  -0.44000   0.00000   |    0.43992  -0.67730   0.00000    |
 |   358    0.28000  -0.44000   0.00000   |    0.51324  -0.63497   0.00000    |
 |   359    0.32000  -0.44000   0.00000   |    0.58656  -0.59264   0.00000    |
 |   360    0.36000  -0.44000   0.00000   |    0.65988  -0.55031   0.00000    |
 |   361    0.40000  -0.44000   0.00000   |    0.73320  -0.50798   0.00000    |
 |   362    0.44000  -0.44000   0.00000   |    0.80652  -0.46565   0.00000    |
 |   363    0.48000  -0.44000   0.00000   |    0.87984  -0.42331   0.00000    |
 |   364   -0.48000  -0.44000   0.00000   |   -0.87984  -1.43927   0.00000    |
 |   365   -0.44000  -0.44000   0.00000   |   -0.80652  -1.39694   0.00000    |
 |   366   -0.40000  -0.44000   0.00000   |   -0.73320  -1.35461   0.00000    |
 |   367   -0.36000  -0.44000   0.00000   |   -0.65988  -1.31227   0.00000    |
 |   368   -0.32000  -0.44000   0.00000   |   -0.58656  -1.26994   0.00000    |
 |   369   -0.28000  -0.44000   0.00000   |   -0.51324  -1.22761   0.00000    |
 |   370   -0.24000  -0.44000   0.00000   |   -0.43992  -1.18528   0.00000    |
 |   371   -0.20000  -0.44000   0.00000   |   -0.36660  -1.14295   0.00000    |
 |   372   -0.16000  -0.44000   0.00000   |   -0.29328  -1.10062   0.00000    |
 |   373   -0.12000  -0.44000   0.00000   |   -0.21996  -1.05829   0.00000    |
 |   374   -0.08000  -0.44000   0.00000   |   -0.14664  -1.01595   0.00000    |
 |   375   -0.04000  -0.44000   0.00000   |   -0.07332  -0.97362   0.00000    |
 |   376    0.00000  -0.40000   0.00000   |    0.00000  -0.84663   0.00000    |
 |   377    0.04000  -0.40000   0.00000   |    0.07332  -0.80430   0.00000    |
 |   378    0.08000  -0.40000   0.00000   |    0.14664  -0.76197   0.00000    |
 |   379    0.12000  -0.40000   0.00000   |    0.21996  -0.71963   0.00000    |
 |   380    0.16000  -0.40000   0.00000   |    0.29328  -0.67730   0.00000    |
 |   381    0.20000  -0.40000   0.00000   |    0.36660  -0.63497   0.00000    |
 |   382    0.24000  -0.40000   0.00000   |    0.43992  -0.59264   0.00000    |
 |   383    0.28000  -0.40000   0.00000   |    0.51324  -0.55031   0.00000    |
 |   384    0.32000  -0.40000   0.00000   |    0.58656  -0.50798   0.00000    |
 |   385    0.36000  -0.40000   0.00000   |    0.65988  -0.46565   0.00000    |
 |   386    0.40000  -0.40000   0.00000   |    0.73320  -0.42331   0.00000    |
 |   387    0.44000  -0.40000   0.00000   |    0.80652  -0.38098   0.00000    |
 |   388    0.48000  -0.40000   0.00000   |    0.87984  -0.33865   0.00000    |
 |   389   -0.48000  -0.40000   0.00000   |   -0.87984  -1.35461   0.00000    |
 |   390   -0.44000  -0.40000   0.00000   |   -0.80652  -1.31227   0.00000    |
 |   391   -0.40000  -0.40000   0.00000   |   -0.73320  -1.26994   0.00000    |
 |   392   -0.36000  -0.40000   0.00000   |   -0.65988  -1.22761   0.00000    |
 |   393   -0.32000  -0.40000   0.00000   |   -0.58656  -1.18528   0.00000    |
 |   394   -0.28000  -0.40000   0.00000   |   -0.51324  -1.14295   0.00000    |
 |   395   -0.24000  -0.40000   0.00000   |   -0.43992  -1.10062   0.00000    |
 |   396   -0.20000  -0.40000   0.00000   |   -0.36660  -1.05829   0.00000    |
 |   397   -0.16000  -0.40000   0.00000   |   -0.29328  -1.01595   0.00000    |
 |   398   -0.12000  -0.40000   0.00000   |   -0.21996  -0.97362   0.00000    |
 |   399   -0.08000  -0.40000   0.00000   |   -0.14664  -0.93129   0.00000    |
 |   400   -0.04000  -0.40000   0.00000   |   -0.07332  -0.88896   0.00000    |
 |   401    0.00000  -0.36000   0.00000   |    0.00000  -0.76197   0.00000    |
 |   402    0.04000  -0.36000   0.00000   |    0.07332  -0.71963   0.00000    |
 |   403    0.08000  -0.36000   0.00000   |    0.14664  -0.67730   0.00000    |
 |   404    0.12000  -0.36000   0.00000   |    0.21996  -0.63497   0.00000    |
 |   405    0.16000  -0.36000   0.00000   |    0.29328  -0.59264   0.00000    |
 |   406    0.20000  -0.36000   0.00000   |    0.36660  -0.55031   0.00000    |
 |   407    0.24000  -0.36000   0.00000   |    0.43992  -0.50798   0.00000    |
 |   408    0.28000  -0.36000   0.00000   |    0.51324  -0.46565   0.00000    |
 |   409    0.32000  -0.36000   0.00000   |    0.58656  -0.42331   0.00000    |
 |   410    0.36000  -0.36000   0.00000   |    0.65988  -0.38098   0.00000    |
 |   411    0.40000  -0.36000   0.00000   |    0.73320  -0.33865   0.00000    |
 |   412    0.44000  -0.36000   0.00000   |    0.80652  -0.29632   0.00000    |
 |   413    0.48000  -0.36000   0.00000   |    0.87984  -0.25399   0.00000    |
 |   414   -0.48000  -0.36000   0.00000   |   -0.87984  -1.26994   0.00000    |
 |   415   -0.44000  -0.36000   0.00000   |   -0.80652  -1.22761   0.00000    |
 |   416   -0.40000  -0.36000   0.00000   |   -0.73320  -1.18528   0.00000    |
 |   417   -0.36000  -0.36000   0.00000   |   -0.65988  -1.14295   0.00000    |
 |   418   -0.32000  -0.36000   0.00000   |   -0.58656  -1.10062   0.00000    |
 |   419   -0.28000  -0.36000   0.00000   |   -0.51324  -1.05829   0.00000    |
 |   420   -0.24000  -0.36000   0.00000   |   -0.43992  -1.01595   0.00000    |
 |   421   -0.20000  -0.36000   0.00000   |   -0.36660  -0.97362   0.00000    |
 |   422   -0.16000  -0.36000   0.00000   |   -0.29328  -0.93129   0.00000    |
 |   423   -0.12000  -0.36000   0.00000   |   -0.21996  -0.88896   0.00000    |
 |   424   -0.08000  -0.36000   0.00000   |   -0.14664  -0.84663   0.00000    |
 |   425   -0.04000  -0.36000   0.00000   |   -0.07332  -0.80430   0.00000    |
 |   426    0.00000  -0.32000   0.00000   |    0.00000  -0.67730   0.00000    |
 |   427    0.04000  -0.32000   0.00000   |    0.07332  -0.63497   0.00000    |
 |   428    0.08000  -0.32000   0.00000   |    0.14664  -0.59264   0.00000    |
 |   429    0.12000  -0.32000   0.00000   |    0.21996  -0.55031   0.00000    |
 |   430    0.16000  -0.32000   0.00000   |    0.29328  -0.50798   0.00000    |
 |   431    0.20000  -0.32000   0.00000   |    0.36660  -0.46565   0.00000    |
 |   432    0.24000  -0.32000   0.00000   |    0.43992  -0.42331   0.00000    |
 |   433    0.28000  -0.32000   0.00000   |    0.51324  -0.38098   0.00000    |
 |   434    0.32000  -0.32000   0.00000   |    0.58656  -0.33865   0.00000    |
 |   435    0.36000  -0.32000   0.00000   |    0.65988  -0.29632   0.00000    |
 |   436    0.40000  -0.32000   0.00000   |    0.73320  -0.25399   0.00000    |
 |   437    0.44000  -0.32000   0.00000   |    0.80652  -0.21166   0.00000    |
 |   438    0.48000  -0.32000   0.00000   |    0.87984  -0.16933   0.00000    |
 |   439   -0.48000  -0.32000   0.00000   |   -0.87984  -1.18528   0.00000    |
 |   440   -0.44000  -0.32000   0.00000   |   -0.80652  -1.14295   0.00000    |
 |   441   -0.40000  -0.32000   0.00000   |   -0.73320  -1.10062   0.00000    |
 |   442   -0.36000  -0.32000   0.00000   |   -0.65988  -1.05829   0.00000    |
 |   443   -0.32000  -0.32000   0.00000   |   -0.58656  -1.01595   0.00000    |
 |   444   -0.28000  -0.32000   0.00000   |   -0.51324  -0.97362   0.00000    |
 |   445   -0.24000  -0.32000   0.00000   |   -0.43992  -0.93129   0.00000    |
 |   446   -0.20000  -0.32000   0.00000   |   -0.36660  -0.88896   0.00000    |
 |   447   -0.16000  -0.32000   0.00000   |   -0.29328  -0.84663   0.00000    |
 |   448   -0.12000  -0.32000   0.00000   |   -0.21996  -0.80430   0.00000    |
 |   449   -0.08000  -0.32000   0.00000   |   -0.14664  -0.76197   0.00000    |
 |   450   -0.04000  -0.32000   0.00000   |   -0.07332  -0.71963   0.00000    |
 |   451    0.00000  -0.28000   0.00000   |    0.00000  -0.59264   0.00000    |
 |   452    0.04000  -0.28000   0.00000   |    0.07332  -0.55031   0.00000    |
 |   453    0.08000  -0.28000   0.00000   |    0.14664  -0.50798   0.00000    |
 |   454    0.12000  -0.28000   0.00000   |    0.21996  -0.46565   0.00000    |
 |   455    0.16000  -0.28000   0.00000   |    0.29328  -0.42331   0.00000    |
 |   456    0.20000  -0.28000   0.00000   |    0.36660  -0.38098   0.00000    |
 |   457    0.24000  -0.28000   0.00000   |    0.43992  -0.33865   0.00000    |
 |   458    0.28000  -0.28000   0.00000   |    0.51324  -0.29632   0.00000    |
 |   459    0.32000  -0.28000   0.00000   |    0.58656  -0.25399   0.00000    |
 |   460    0.36000  -0.28000   0.00000   |    0.65988  -0.21166   0.00000    |
 |   461    0.40000  -0.28000   0.00000   |    0.73320  -0.16933   0.00000    |
 |   462    0.44000  -0.28000   0.00000   |    0.80652  -0.12699   0.00000    |
 |   463    0.48000  -0.28000   0.00000   |    0.87984  -0.08466   0.00000    |
 |   464   -0.48000  -0.28000   0.00000   |   -0.87984  -1.10062   0.00000    |
 |   465   -0.44000  -0.28000   0.00000   |   -0.80652  -1.05829   0.00000    |
 |   466   -0.40000  -0.28000   0.00000   |   -0.73320  -1.01595   0.00000    |
 |   467   -0.36000  -0.28000   0.00000   |   -0.65988  -0.97362   0.00000    |
 |   468   -0.32000  -0.28000   0.00000   |   -0.58656  -0.93129   0.00000    |
 |   469   -0.28000  -0.28000   0.00000   |   -0.51324  -0.88896   0.00000    |
 |   470   -0.24000  -0.28000   0.00000   |   -0.43992  -0.84663   0.00000    |
 |   471   -0.20000  -0.28000   0.00000   |   -0.36660  -0.80430   0.00000    |
 |   472   -0.16000  -0.28000   0.00000   |   -0.29328  -0.76197   0.00000    |
 |   473   -0.12000  -0.28000   0.00000   |   -0.21996  -0.71963   0.00000    |
 |   474   -0.08000  -0.28000   0.00000   |   -0.14664  -0.67730   0.00000    |
 |   475   -0.04000  -0.28000   0.00000   |   -0.07332  -0.63497   0.00000    |
 |   476    0.00000  -0.24000   0.00000   |    0.00000  -0.50798   0.00000    |
 |   477    0.04000  -0.24000   0.00000   |    0.07332  -0.46565   0.00000    |
 |   478    0.08000  -0.24000   0.00000   |    0.14664  -0.42331   0.00000    |
 |   479    0.12000  -0.24000   0.00000   |    0.21996  -0.38098   0.00000    |
 |   480    0.16000  -0.24000   0.00000   |    0.29328  -0.33865   0.00000    |
 |   481    0.20000  -0.24000   0.00000   |    0.36660  -0.29632   0.00000    |
 |   482    0.24000  -0.24000   0.00000   |    0.43992  -0.25399   0.00000    |
 |   483    0.28000  -0.24000   0.00000   |    0.51324  -0.21166   0.00000    |
 |   484    0.32000  -0.24000   0.00000   |    0.58656  -0.16933   0.00000    |
 |   485    0.36000  -0.24000   0.00000   |    0.65988  -0.12699   0.00000    |
 |   486    0.40000  -0.24000   0.00000   |    0.73320  -0.08466   0.00000    |
 |   487    0.44000  -0.24000   0.00000   |    0.80652  -0.04233   0.00000    |
 |   488    0.48000  -0.24000   0.00000   |    0.87984   0.00000   0.00000    |
 |   489   -0.48000  -0.24000   0.00000   |   -0.87984  -1.01595   0.00000    |
 |   490   -0.44000  -0.24000   0.00000   |   -0.80652  -0.97362   0.00000    |
 |   491   -0.40000  -0.24000   0.00000   |   -0.73320  -0.93129   0.00000    |
 |   492   -0.36000  -0.24000   0.00000   |   -0.65988  -0.88896   0.00000    |
 |   493   -0.32000  -0.24000   0.00000   |   -0.58656  -0.84663   0.00000    |
 |   494   -0.28000  -0.24000   0.00000   |   -0.51324  -0.80430   0.00000    |
 |   495   -0.24000  -0.24000   0.00000   |   -0.43992  -0.76197   0.00000    |
 |   496   -0.20000  -0.24000   0.00000   |   -0.36660  -0.71963   0.00000    |
 |   497   -0.16000  -0.24000   0.00000   |   -0.29328  -0.67730   0.00000    |
 |   498   -0.12000  -0.24000   0.00000   |   -0.21996  -0.63497   0.00000    |
 |   499   -0.08000  -0.24000   0.00000   |   -0.14664  -0.59264   0.00000    |
 |   500   -0.04000  -0.24000   0.00000   |   -0.07332  -0.55031   0.00000    |
 |   501    0.00000  -0.20000   0.00000   |    0.00000  -0.42331   0.00000    |
 |   502    0.04000  -0.20000   0.00000   |    0.07332  -0.38098   0.00000    |
 |   503    0.08000  -0.20000   0.00000   |    0.14664  -0.33865   0.00000    |
 |   504    0.12000  -0.20000   0.00000   |    0.21996  -0.29632   0.00000    |
 |   505    0.16000  -0.20000   0.00000   |    0.29328  -0.25399   0.00000    |
 |   506    0.20000  -0.20000   0.00000   |    0.36660  -0.21166   0.00000    |
 |   507    0.24000  -0.20000   0.00000   |    0.43992  -0.16933   0.00000    |
 |   508    0.28000  -0.20000   0.00000   |    0.51324  -0.12699   0.00000    |
 |   509    0.32000  -0.20000   0.00000   |    0.58656  -0.08466   0.00000    |
 |   510    0.36000  -0.20000   0.00000   |    0.65988  -0.04233   0.00000    |
 |   511    0.40000  -0.20000   0.00000   |    0.73320   0.00000   0.00000    |
 |   512    0.44000  -0.20000   0.00000   |    0.80652   0.04233   0.00000    |
 |   513    0.48000  -0.20000   0.00000   |    0.87984   0.08466   0.00000    |
 |   514   -0.48000  -0.20000   0.00000   |   -0.87984  -0.93129   0.00000    |
 |   515   -0.44000  -0.20000   0.00000   |   -0.80652  -0.88896   0.00000    |
 |   516   -0.40000  -0.20000   0.00000   |   -0.73320  -0.84663   0.00000    |
 |   517   -0.36000  -0.20000   0.00000   |   -0.65988  -0.80430   0.00000    |
 |   518   -0.32000  -0.20000   0.00000   |   -0.58656  -0.76197   0.00000    |
 |   519   -0.28000  -0.20000   0.00000   |   -0.51324  -0.71963   0.00000    |
 |   520   -0.24000  -0.20000   0.00000   |   -0.43992  -0.67730   0.00000    |
 |   521   -0.20000  -0.20000   0.00000   |   -0.36660  -0.63497   0.00000    |
 |   522   -0.16000  -0.20000   0.00000   |   -0.29328  -0.59264   0.00000    |
 |   523   -0.12000  -0.20000   0.00000   |   -0.21996  -0.55031   0.00000    |
 |   524   -0.08000  -0.20000   0.00000   |   -0.14664  -0.50798   0.00000    |
 |   525   -0.04000  -0.20000   0.00000   |   -0.07332  -0.46565   0.00000    |
 |   526    0.00000  -0.16000   0.00000   |    0.00000  -0.33865   0.00000    |
 |   527    0.04000  -0.16000   0.00000   |    0.07332  -0.29632   0.00000    |
 |   528    0.08000  -0.16000   0.00000   |    0.14664  -0.25399   0.00000    |
 |   529    0.12000  -0.16000   0.00000   |    0.21996  -0.21166   0.00000    |
 |   530    0.16000  -0.16000   0.00000   |    0.29328  -0.16933   0.00000    |
 |   531    0.20000  -0.16000   0.00000   |    0.36660  -0.12699   0.00000    |
 |   532    0.24000  -0.16000   0.00000   |    0.43992  -0.08466   0.00000    |
 |   533    0.28000  -0.16000   0.00000   |    0.51324  -0.04233   0.00000    |
 |   534    0.32000  -0.16000   0.00000   |    0.58656   0.00000   0.00000    |
 |   535    0.36000  -0.16000   0.00000   |    0.65988   0.04233   0.00000    |
 |   536    0.40000  -0.16000   0.00000   |    0.73320   0.08466   0.00000    |
 |   537    0.44000  -0.16000   0.00000   |    0.80652   0.12699   0.00000    |
 |   538    0.48000  -0.16000   0.00000   |    0.87984   0.16933   0.00000    |
 |   539   -0.48000  -0.16000   0.00000   |   -0.87984  -0.84663   0.00000    |
 |   540   -0.44000  -0.16000   0.00000   |   -0.80652  -0.80430   0.00000    |
 |   541   -0.40000  -0.16000   0.00000   |   -0.73320  -0.76197   0.00000    |
 |   542   -0.36000  -0.16000   0.00000   |   -0.65988  -0.71963   0.00000    |
 |   543   -0.32000  -0.16000   0.00000   |   -0.58656  -0.67730   0.00000    |
 |   544   -0.28000  -0.16000   0.00000   |   -0.51324  -0.63497   0.00000    |
 |   545   -0.24000  -0.16000   0.00000   |   -0.43992  -0.59264   0.00000    |
 |   546   -0.20000  -0.16000   0.00000   |   -0.36660  -0.55031   0.00000    |
 |   547   -0.16000  -0.16000   0.00000   |   -0.29328  -0.50798   0.00000    |
 |   548   -0.12000  -0.16000   0.00000   |   -0.21996  -0.46565   0.00000    |
 |   549   -0.08000  -0.16000   0.00000   |   -0.14664  -0.42331   0.00000    |
 |   550   -0.04000  -0.16000   0.00000   |   -0.07332  -0.38098   0.00000    |
 |   551    0.00000  -0.12000   0.00000   |    0.00000  -0.25399   0.00000    |
 |   552    0.04000  -0.12000   0.00000   |    0.07332  -0.21166   0.00000    |
 |   553    0.08000  -0.12000   0.00000   |    0.14664  -0.16933   0.00000    |
 |   554    0.12000  -0.12000   0.00000   |    0.21996  -0.12699   0.00000    |
 |   555    0.16000  -0.12000   0.00000   |    0.29328  -0.08466   0.00000    |
 |   556    0.20000  -0.12000   0.00000   |    0.36660  -0.04233   0.00000    |
 |   557    0.24000  -0.12000   0.00000   |    0.43992   0.00000   0.00000    |
 |   558    0.28000  -0.12000   0.00000   |    0.51324   0.04233   0.00000    |
 |   559    0.32000  -0.12000   0.00000   |    0.58656   0.08466   0.00000    |
 |   560    0.36000  -0.12000   0.00000   |    0.65988   0.12699   0.00000    |
 |   561    0.40000  -0.12000   0.00000   |    0.73320   0.16933   0.00000    |
 |   562    0.44000  -0.12000   0.00000   |    0.80652   0.21166   0.00000    |
 |   563    0.48000  -0.12000   0.00000   |    0.87984   0.25399   0.00000    |
 |   564   -0.48000  -0.12000   0.00000   |   -0.87984  -0.76197   0.00000    |
 |   565   -0.44000  -0.12000   0.00000   |   -0.80652  -0.71963   0.00000    |
 |   566   -0.40000  -0.12000   0.00000   |   -0.73320  -0.67730   0.00000    |
 |   567   -0.36000  -0.12000   0.00000   |   -0.65988  -0.63497   0.00000    |
 |   568   -0.32000  -0.12000   0.00000   |   -0.58656  -0.59264   0.00000    |
 |   569   -0.28000  -0.12000   0.00000   |   -0.51324  -0.55031   0.00000    |
 |   570   -0.24000  -0.12000   0.00000   |   -0.43992  -0.50798   0.00000    |
 |   571   -0.20000  -0.12000   0.00000   |   -0.36660  -0.46565   0.00000    |
 |   572   -0.16000  -0.12000   0.00000   |   -0.29328  -0.42331   0.00000    |
 |   573   -0.12000  -0.12000   0.00000   |   -0.21996  -0.38098   0.00000    |
 |   574   -0.08000  -0.12000   0.00000   |   -0.14664  -0.33865   0.00000    |
 |   575   -0.04000  -0.12000   0.00000   |   -0.07332  -0.29632   0.00000    |
 |   576    0.00000  -0.08000   0.00000   |    0.00000  -0.16933   0.00000    |
 |   577    0.04000  -0.08000   0.00000   |    0.07332  -0.12699   0.00000    |
 |   578    0.08000  -0.08000   0.00000   |    0.14664  -0.08466   0.00000    |
 |   579    0.12000  -0.08000   0.00000   |    0.21996  -0.04233   0.00000    |
 |   580    0.16000  -0.08000   0.00000   |    0.29328   0.00000   0.00000    |
 |   581    0.20000  -0.08000   0.00000   |    0.36660   0.04233   0.00000    |
 |   582    0.24000  -0.08000   0.00000   |    0.43992   0.08466   0.00000    |
 |   583    0.28000  -0.08000   0.00000   |    0.51324   0.12699   0.00000    |
 |   584    0.32000  -0.08000   0.00000   |    0.58656   0.16933   0.00000    |
 |   585    0.36000  -0.08000   0.00000   |    0.65988   0.21166   0.00000    |
 |   586    0.40000  -0.08000   0.00000   |    0.73320   0.25399   0.00000    |
 |   587    0.44000  -0.08000   0.00000   |    0.80652   0.29632   0.00000    |
 |   588    0.48000  -0.08000   0.00000   |    0.87984   0.33865   0.00000    |
 |   589   -0.48000  -0.08000   0.00000   |   -0.87984  -0.67730   0.00000    |
 |   590   -0.44000  -0.08000   0.00000   |   -0.80652  -0.63497   0.00000    |
 |   591   -0.40000  -0.08000   0.00000   |   -0.73320  -0.59264   0.00000    |
 |   592   -0.36000  -0.08000   0.00000   |   -0.65988  -0.55031   0.00000    |
 |   593   -0.32000  -0.08000   0.00000   |   -0.58656  -0.50798   0.00000    |
 |   594   -0.28000  -0.08000   0.00000   |   -0.51324  -0.46565   0.00000    |
 |   595   -0.24000  -0.08000   0.00000   |   -0.43992  -0.42331   0.00000    |
 |   596   -0.20000  -0.08000   0.00000   |   -0.36660  -0.38098   0.00000    |
 |   597   -0.16000  -0.08000   0.00000   |   -0.29328  -0.33865   0.00000    |
 |   598   -0.12000  -0.08000   0.00000   |   -0.21996  -0.29632   0.00000    |
 |   599   -0.08000  -0.08000   0.00000   |   -0.14664  -0.25399   0.00000    |
 |   600   -0.04000  -0.08000   0.00000   |   -0.07332  -0.21166   0.00000    |
 |   601    0.00000  -0.04000   0.00000   |    0.00000  -0.08466   0.00000    |
 |   602    0.04000  -0.04000   0.00000   |    0.07332  -0.04233   0.00000    |
 |   603    0.08000  -0.04000   0.00000   |    0.14664   0.00000   0.00000    |
 |   604    0.12000  -0.04000   0.00000   |    0.21996   0.04233   0.00000    |
 |   605    0.16000  -0.04000   0.00000   |    0.29328   0.08466   0.00000    |
 |   606    0.20000  -0.04000   0.00000   |    0.36660   0.12699   0.00000    |
 |   607    0.24000  -0.04000   0.00000   |    0.43992   0.16933   0.00000    |
 |   608    0.28000  -0.04000   0.00000   |    0.51324   0.21166   0.00000    |
 |   609    0.32000  -0.04000   0.00000   |    0.58656   0.25399   0.00000    |
 |   610    0.36000  -0.04000   0.00000   |    0.65988   0.29632   0.00000    |
 |   611    0.40000  -0.04000   0.00000   |    0.73320   0.33865   0.00000    |
 |   612    0.44000  -0.04000   0.00000   |    0.80652   0.38098   0.00000    |
 |   613    0.48000  -0.04000   0.00000   |    0.87984   0.42331   0.00000    |
 |   614   -0.48000  -0.04000   0.00000   |   -0.87984  -0.59264   0.00000    |
 |   615   -0.44000  -0.04000   0.00000   |   -0.80652  -0.55031   0.00000    |
 |   616   -0.40000  -0.04000   0.00000   |   -0.73320  -0.50798   0.00000    |
 |   617   -0.36000  -0.04000   0.00000   |   -0.65988  -0.46565   0.00000    |
 |   618   -0.32000  -0.04000   0.00000   |   -0.58656  -0.42331   0.00000    |
 |   619   -0.28000  -0.04000   0.00000   |   -0.51324  -0.38098   0.00000    |
 |   620   -0.24000  -0.04000   0.00000   |   -0.43992  -0.33865   0.00000    |
 |   621   -0.20000  -0.04000   0.00000   |   -0.36660  -0.29632   0.00000    |
 |   622   -0.16000  -0.04000   0.00000   |   -0.29328  -0.25399   0.00000    |
 |   623   -0.12000  -0.04000   0.00000   |   -0.21996  -0.21166   0.00000    |
 |   624   -0.08000  -0.04000   0.00000   |   -0.14664  -0.16933   0.00000    |
 |   625   -0.04000  -0.04000   0.00000   |   -0.07332  -0.12699   0.00000    |
 *----------------------------------------------------------------------------*
  
  
 *---------------------------------- MAIN ------------------------------------*
 |  Number of Wannier Functions               :                22             |
 |  Number of Objective Wannier Functions     :                22             |
 |  Number of input Bloch states              :                26             |
 |  Output verbosity (1=low, 5=high)          :                 3             |
 |  Timing Level (1=low, 5=high)              :                 1             |
 |  Optimisation (0=memory, 3=speed)          :                 3             |
 |  Length Unit                               :               Ang             |
 |  Post-processing setup (write *.nnkp)      :                 F             |
 |  Using Gamma-only branch of algorithms     :                 F             |
 |  CP code post-processing                   :                 F             |
 |  Wavefunction (UNK) file-type              :       unformatted             |
 |  Wavefunction spin channel                 :                up             |
 *----------------------------------------------------------------------------*
 *------------------------------- WANNIERISE ---------------------------------*
 |  Total number of iterations                :               100             |
 |  Number of CG steps before reset           :                 5             |
 |  Trial step length for line search         :             2.000             |
 |  Convergence tolerence                     :         0.100E-09             |
 |  Convergence window                        :                -1             |
 |  Iterations between writing output         :                 1             |
 |  Iterations between backing up to disk     :               100             |
 |  Write r^2_nm to file                      :                 F             |
 |  Write xyz WF centres to file              :                 T             |
 |  Write on-site energies <0n|H|0n> to file  :                 F             |
 |  Use guiding centre to control phases      :                 F             |
 |  Use phases for initial projections        :                 F             |
 |  Iterations before starting guiding centres:                 0             |
 |  Iterations between using guiding centres  :                 1             |
 |  Perform selective localization            :                 F             |
 |  Use constrains in selective localization  :                 F             |
 |  Value of the Lagrange multiplier          :         0.100E+01             |
 *----------------------------------------------------------------------------*
 *------------------------------- DISENTANGLE --------------------------------*
 |  Using band disentanglement                :                 T             |
 |  Total number of iterations                :               200             |
 |  Mixing ratio                              :             0.500             |
 |  Convergence tolerence                     :         1.000E-10             |
 |  Convergence window                        :                 3             |
 *----------------------------------------------------------------------------*
 *-------------------------------- PLOTTING ----------------------------------*
 |  Plotting Wannier functions                :                 F             |
 |   Size of supercell for plotting           :     1x    1x    1             |
 |   Plotting mode (molecule or crystal)      :           crystal             |
 |   Plotting mode for spinor WFs             :             total             |
 |   Include phase for spinor WFs             :                 T             |
 |   Plotting format                          :          xcrysden             |
 |   Plot radius                              :             3.500             |
 |   Plot scale                               :             1.000             |
 *----------------------------------------------------------------------------*
 |  Plotting Fermi surface                    :                 F             |
 |   Number of plotting points (along b_1)    :                50             |
 |   Plotting format                          :          xcrysden             |
 *----------------------------------------------------------------------------*
 |  Plotting interpolated bandstructure       :                 T             |
 |   Number of K-path sections                :                 3             |
 |   Divisions along first K-path section     :               100             |
 |   Output format                            :           gnuplot             |
 |   Output mode                              :               s-k             |
 *----------------------------------------------------------------------------*
 |   K-space path sections:                                                   |
 |    From: K       0.333  0.333  0.000     To: G       0.000  0.000  0.000   |
 |    From: G       0.000  0.000  0.000     To: M       0.500  0.000  0.000   |
 |    From: M       0.500  0.000  0.000     To: K       0.333  0.333  0.000   |
 *----------------------------------------------------------------------------*
 |  Plotting Hamiltonian in WF basis          :                 T             |
 *----------------------------------------------------------------------------*
 |  Writing data for Van der Waals post-proc  :                 F             |
 *----------------------------------------------------------------------------*
 *------------------------------- TRANSPORT ----------------------------------*
 |  Transport mode                            :              bulk             |
 |   Hamiltonian from external files          :                 F             |
 |   System extended in                       :              none             |
 |   Centre of the unit cell to which WF are translated (fract. coords):      |
 |                                       0.000000,    0.000000,    0.000000   |
 |  Fermi energy (eV)                         :            -3.023             |
 *----------------------------------------------------------------------------*
 Time to read parameters        0.079 (sec)

 *---------------------------------- K-MESH ----------------------------------*
 +----------------------------------------------------------------------------+
 |                    Distance to Nearest-Neighbour Shells                    |
 |                    ------------------------------------                    |
 |          Shell             Distance (Ang^-1)          Multiplicity         |
 |          -----             -----------------          ------------         |
 |             1                   0.084663                      6            |
 |             2                   0.146640                      6            |
 |             3                   0.169326                      6            |
 |             4                   0.202247                      2            |
 |             5                   0.219252                     12            |
 |             6                   0.223997                     12            |
 |             7                   0.249814                     12            |
 |             8                   0.253988                      6            |
 |             9                   0.263771                     12            |
 |            10                   0.293281                      6            |
 |            11                   0.301792                     24            |
 |            12                   0.305256                     12            |
 |            13                   0.324675                     12            |
 |            14                   0.338651                      6            |
 |            15                   0.356255                     12            |
 |            16                   0.366176                     24            |
 |            17                   0.369037                     12            |
 |            18                   0.387974                     12            |
 |            19                   0.394447                     12            |
 |            20                   0.404494                      2            |
 |            21                   0.413259                     12            |
 |            22                   0.420823                     24            |
 |            23                   0.423314                      6            |
 |            24                   0.430254                     12            |
 |            25                   0.437524                     24            |
 |            26                   0.438505                     12            |
 |            27                   0.439921                      6            |
 |            28                   0.447994                     12            |
 |            29                   0.462374                     24            |
 |            30                   0.469147                     12            |
 |            31                   0.471383                     12            |
 |            32                   0.477625                     12            |
 |            33                   0.484184                     12            |
 |            34                   0.491530                     24            |
 |            35                   0.499629                     12            |
 |            36                   0.506751                     24            |
 +----------------------------------------------------------------------------+
 | The b-vectors are chosen automatically                                     |
 | Shell:  1 Multiplicity:  6                                                 |
 | b-vector 1 :        0.073320    0.042331    0.000000      (Ang^-1)         |
 | b-vector 2 :       -0.073320   -0.042331    0.000000      (Ang^-1)         |
 | b-vector 3 :       -0.000000    0.084663    0.000000      (Ang^-1)         |
 | b-vector 4 :       -0.073320    0.042331    0.000000      (Ang^-1)         |
 | b-vector 5 :        0.000000   -0.084663    0.000000      (Ang^-1)         |
 | b-vector 6 :        0.073320   -0.042331    0.000000      (Ang^-1)         |
 | Shell:  1 w_b   46.5043193      (Ang^2)                                    |
 | B1 condition is not satisfied: Adding another shell                        |
 | Shell:  2 Multiplicity:  6                                                 |
 | b-vector 1 :        0.073320    0.126994    0.000000      (Ang^-1)         |
 | b-vector 2 :       -0.146640   -0.000000    0.000000      (Ang^-1)         |
 | b-vector 3 :       -0.073320    0.126994    0.000000      (Ang^-1)         |
 | b-vector 4 :        0.073320   -0.126994    0.000000      (Ang^-1)         |
 | b-vector 5 :        0.146640    0.000000    0.000000      (Ang^-1)         |
 | b-vector 6 :       -0.073320   -0.126994    0.000000      (Ang^-1)         |
 | SVD found small singular value, Rejecting this shell and trying the next   |
 | Shell:  3 Multiplicity:  6                                                 |
 | b-vector 1 :        0.146640    0.084663    0.000000      (Ang^-1)         |
 | b-vector 2 :       -0.146640   -0.084663    0.000000      (Ang^-1)         |
 | b-vector 3 :       -0.000000    0.169326    0.000000      (Ang^-1)         |
 | b-vector 4 :       -0.146640    0.084663    0.000000      (Ang^-1)         |
 | b-vector 5 :        0.000000   -0.169326    0.000000      (Ang^-1)         |
 | b-vector 6 :        0.146640   -0.084663    0.000000      (Ang^-1)         |
 | This shell is linearly dependent on existing shells: Trying next shell     |
 | Shell:  4 Multiplicity:  2                                                 |
 | b-vector 1 :        0.000000    0.000000    0.202247      (Ang^-1)         |
 | b-vector 2 :        0.000000    0.000000   -0.202247      (Ang^-1)         |
 | Shell:  1 w_b   46.5043193      (Ang^2)                                    |
 | Shell:  2 w_b   12.2237875      (Ang^2)                                    |
 | The following shells are used:   1,  4                                     |
 +----------------------------------------------------------------------------+
 |                        Shell   # Nearest-Neighbours                        |
 |                        -----   --------------------                        |
 |                          1               6                                 |
 |                          4               2                                 |
 +----------------------------------------------------------------------------+
 | Completeness relation is fully satisfied [Eq. (B1), PRB 56, 12847 (1997)]  |
 +----------------------------------------------------------------------------+
 |                  b_k Vectors (Ang^-1) and Weights (Ang^2)                  |
 |                  ----------------------------------------                  |
 |            No.         b_k(x)      b_k(y)      b_k(z)        w_b           |
 |            ---        --------------------------------     --------        |
 |             1         0.073320    0.042331    0.000000    46.504319        |
 |             2        -0.073320   -0.042331    0.000000    46.504319        |
 |             3        -0.000000    0.084663    0.000000    46.504319        |
 |             4        -0.073320    0.042331    0.000000    46.504319        |
 |             5         0.000000   -0.084663    0.000000    46.504319        |
 |             6         0.073320   -0.042331    0.000000    46.504319        |
 |             7         0.000000    0.000000    0.202247    12.223787        |
 |             8         0.000000    0.000000   -0.202247    12.223787        |
 +----------------------------------------------------------------------------+
 |                           b_k Directions (Ang^-1)                          |
 |                           -----------------------                          |
 |            No.           x           y           z                         |
 |            ---        --------------------------------                     |
 |             1         0.073320    0.042331    0.000000                     |
 |             2        -0.000000    0.084663    0.000000                     |
 |             3        -0.073320    0.042331    0.000000                     |
 |             4         0.000000    0.000000    0.202247                     |
 +----------------------------------------------------------------------------+
  
 Time to get kmesh              0.428 (sec)
 *============================================================================*
 |                              MEMORY ESTIMATE                               |
 |         Maximum RAM allocated during each phase of the calculation         |
 *============================================================================*
 |                        Disentanglement          104.67 Mb                  |
 |                            Wannierise:          102.39 Mb                  |
 |                                                                            |
 |   N.B. by setting optimisation=0 memory usage will be reduced to:          |
 |                        Disentanglement           80.69 Mb                  |
 |                            Wannierise:           65.46 Mb                  |
 |   However, this will result in more i/o and slow down the calculation      |
 |                          plot_wannier:          102.39 Mb                  |
 *----------------------------------------------------------------------------*
  
 Starting a new Wannier90 calculation ...


 Reading overlaps from wannier90.mmn    : File generated by VASP: unknown system

 Reading projections from wannier90.amn : File generated by VASP: unknown system

 Time to read overlaps          3.920 (sec)

 *------------------------------- DISENTANGLE --------------------------------*
 +----------------------------------------------------------------------------+
 |                              Energy  Windows                               |
 |                              ---------------                               |
 |                   Outer:   -8.71414  to    3.67830  (eV)                   |
 |                   Inner:   -8.71394  to    0.67750  (eV)                   |
 +----------------------------------------------------------------------------+
 |                        K-points with Frozen States                         |
 |                        ---------------------------                         |
 |     1     2     3     4     5     6     7     8     9    10    11    12    |
 |    13    14    15    16    17    18    19    20    21    22    23    24    |
 |    25    26    27    28    29    30    31    32    33    34    35    36    |
 |    37    38    39    40    41    42    43    44    45    46    47    48    |
 |    49    50    51    52    53    54    55    56    57    58    59    60    |
 |    61    62    63    64    65    66    67    68    69    70    71    72    |
 |    73    74    75    76    77    78    79    80    81    82    83    84    |
 |    85    86    87    88    89    90    91    92    93    94    95    96    |
 |    97    98    99   100   101   102   103   104   105   106   107   108    |
 |   109   110   111   112   113   114   115   116   117   118   119   120    |
 |   121   122   123   124   125   126   127   128   129   130   131   132    |
 |   133   134   135   136   137   138   139   140   141   142   143   144    |
 |   145   146   147   148   149   150   151   152   153   154   155   156    |
 |   157   158   159   160   161   162   163   164   165   166   167   168    |
 |   169   170   171   172   173   174   175   176   177   178   179   180    |
 |   181   182   183   184   185   186   187   188   189   190   191   192    |
 |   193   194   195   196   197   198   199   200   201   202   203   204    |
 |   205   206   207   208   209   210   211   212   213   214   215   216    |
 |   217   218   219   220   221   222   223   224   225   226   227   228    |
 |   229   230   231   232   233   234   235   236   237   238   239   240    |
 |   241   242   243   244   245   246   247   248   249   250   251   252    |
 |   253   254   255   256   257   258   259   260   261   262   263   264    |
 |   265   266   267   268   269   270   271   272   273   274   275   276    |
 |   277   278   279   280   281   282   283   284   285   286   287   288    |
 |   289   290   291   292   293   294   295   296   297   298   299   300    |
 |   301   302   303   304   305   306   307   308   309   310   311   312    |
 |   313   314   315   316   317   318   319   320   321   322   323   324    |
 |   325   326   327   328   329   330   331   332   333   334   335   336    |
 |   337   338   339   340   341   342   343   344   345   346   347   348    |
 |   349   350   351   352   353   354   355   356   357   358   359   360    |
 |   361   362   363   364   365   366   367   368   369   370   371   372    |
 |   373   374   375   376   377   378   379   380   381   382   383   384    |
 |   385   386   387   388   389   390   391   392   393   394   395   396    |
 |   397   398   399   400   401   402   403   404   405   406   407   408    |
 |   409   410   411   412   413   414   415   416   417   418   419   420    |
 |   421   422   423   424   425   426   427   428   429   430   431   432    |
 |   433   434   435   436   437   438   439   440   441   442   443   444    |
 |   445   446   447   448   449   450   451   452   453   454   455   456    |
 |   457   458   459   460   461   462   463   464   465   466   467   468    |
 |   469   470   471   472   473   474   475   476   477   478   479   480    |
 |   481   482   483   484   485   486   487   488   489   490   491   492    |
 |   493   494   495   496   497   498   499   500   501   502   503   504    |
 |   505   506   507   508   509   510   511   512   513   514   515   516    |
 |   517   518   519   520   521   522   523   524   525   526   527   528    |
 |   529   530   531   532   533   534   535   536   537   538   539   540    |
 |   541   542   543   544   545   546   547   548   549   550   551   552    |
 |   553   554   555   556   557   558   559   560   561   562   563   564    |
 |   565   566   567   568   569   570   571   572   573   574   575   576    |
 |   577   578   579   580   581   582   583   584   585   586   587   588    |
 |   589   590   591   592   593   594   595   596   597   598   599   600    |
[...]
      vector  -5 -11   0   degeneracy:  1
      vector  -5 -10   0   degeneracy:  1
      vector  -5  -9   0   degeneracy:  1
      vector  -5  -8   0   degeneracy:  1
      vector  -5  -7   0   degeneracy:  1
      vector  -5  -6   0   degeneracy:  1
      vector  -5  -5   0   degeneracy:  1
      vector  -5  -4   0   degeneracy:  1
      vector  -5  -3   0   degeneracy:  1
      vector  -5  -2   0   degeneracy:  1
      vector  -5  -1   0   degeneracy:  1
      vector  -5   0   0   degeneracy:  1
      vector  -5   1   0   degeneracy:  1
      vector  -5   2   0   degeneracy:  1
      vector  -5   3   0   degeneracy:  1
      vector  -5   4   0   degeneracy:  1
      vector  -5   5   0   degeneracy:  1
      vector  -5   6   0   degeneracy:  1
      vector  -5   7   0   degeneracy:  1
      vector  -5   8   0   degeneracy:  1
      vector  -5   9   0   degeneracy:  1
      vector  -4 -14   0   degeneracy:  1
      vector  -4 -13   0   degeneracy:  1
      vector  -4 -12   0   degeneracy:  1
      vector  -4 -11   0   degeneracy:  1
      vector  -4 -10   0   degeneracy:  1
      vector  -4  -9   0   degeneracy:  1
      vector  -4  -8   0   degeneracy:  1
      vector  -4  -7   0   degeneracy:  1
      vector  -4  -6   0   degeneracy:  1
      vector  -4  -5   0   degeneracy:  1
      vector  -4  -4   0   degeneracy:  1
      vector  -4  -3   0   degeneracy:  1
      vector  -4  -2   0   degeneracy:  1
      vector  -4  -1   0   degeneracy:  1
      vector  -4   0   0   degeneracy:  1
      vector  -4   1   0   degeneracy:  1
      vector  -4   2   0   degeneracy:  1
      vector  -4   3   0   degeneracy:  1
      vector  -4   4   0   degeneracy:  1
      vector  -4   5   0   degeneracy:  1
      vector  -4   6   0   degeneracy:  1
      vector  -4   7   0   degeneracy:  1
      vector  -4   8   0   degeneracy:  1
      vector  -4   9   0   degeneracy:  1
      vector  -4  10   0   degeneracy:  1
      vector  -3 -14   0   degeneracy:  1
      vector  -3 -13   0   degeneracy:  1
      vector  -3 -12   0   degeneracy:  1
      vector  -3 -11   0   degeneracy:  1
      vector  -3 -10   0   degeneracy:  1
      vector  -3  -9   0   degeneracy:  1
      vector  -3  -8   0   degeneracy:  1
      vector  -3  -7   0   degeneracy:  1
      vector  -3  -6   0   degeneracy:  1
      vector  -3  -5   0   degeneracy:  1
      vector  -3  -4   0   degeneracy:  1
      vector  -3  -3   0   degeneracy:  1
      vector  -3  -2   0   degeneracy:  1
      vector  -3  -1   0   degeneracy:  1
      vector  -3   0   0   degeneracy:  1
      vector  -3   1   0   degeneracy:  1
      vector  -3   2   0   degeneracy:  1
      vector  -3   3   0   degeneracy:  1
      vector  -3   4   0   degeneracy:  1
      vector  -3   5   0   degeneracy:  1
      vector  -3   6   0   degeneracy:  1
      vector  -3   7   0   degeneracy:  1
      vector  -3   8   0   degeneracy:  1
      vector  -3   9   0   degeneracy:  1
      vector  -3  10   0   degeneracy:  1
      vector  -2 -13   0   degeneracy:  1
      vector  -2 -12   0   degeneracy:  1
      vector  -2 -11   0   degeneracy:  1
      vector  -2 -10   0   degeneracy:  1
      vector  -2  -9   0   degeneracy:  1
      vector  -2  -8   0   degeneracy:  1
      vector  -2  -7   0   degeneracy:  1
      vector  -2  -6   0   degeneracy:  1
      vector  -2  -5   0   degeneracy:  1
      vector  -2  -4   0   degeneracy:  1
      vector  -2  -3   0   degeneracy:  1
      vector  -2  -2   0   degeneracy:  1
      vector  -2  -1   0   degeneracy:  1
      vector  -2   0   0   degeneracy:  1
      vector  -2   1   0   degeneracy:  1
      vector  -2   2   0   degeneracy:  1
      vector  -2   3   0   degeneracy:  1
      vector  -2   4   0   degeneracy:  1
      vector  -2   5   0   degeneracy:  1
      vector  -2   6   0   degeneracy:  1
      vector  -2   7   0   degeneracy:  1
      vector  -2   8   0   degeneracy:  1
      vector  -2   9   0   degeneracy:  1
      vector  -2  10   0   degeneracy:  1
      vector  -2  11   0   degeneracy:  1
      vector  -1 -13   0   degeneracy:  1
      vector  -1 -12   0   degeneracy:  1
      vector  -1 -11   0   degeneracy:  1
      vector  -1 -10   0   degeneracy:  1
      vector  -1  -9   0   degeneracy:  1
      vector  -1  -8   0   degeneracy:  1
      vector  -1  -7   0   degeneracy:  1
      vector  -1  -6   0   degeneracy:  1
      vector  -1  -5   0   degeneracy:  1
      vector  -1  -4   0   degeneracy:  1
      vector  -1  -3   0   degeneracy:  1
      vector  -1  -2   0   degeneracy:  1
      vector  -1  -1   0   degeneracy:  1
      vector  -1   0   0   degeneracy:  1
      vector  -1   1   0   degeneracy:  1
      vector  -1   2   0   degeneracy:  1
      vector  -1   3   0   degeneracy:  1
      vector  -1   4   0   degeneracy:  1
      vector  -1   5   0   degeneracy:  1
      vector  -1   6   0   degeneracy:  1
      vector  -1   7   0   degeneracy:  1
      vector  -1   8   0   degeneracy:  1
      vector  -1   9   0   degeneracy:  1
      vector  -1  10   0   degeneracy:  1
      vector  -1  11   0   degeneracy:  1
      vector   0 -12   0   degeneracy:  1
      vector   0 -11   0   degeneracy:  1
      vector   0 -10   0   degeneracy:  1
      vector   0  -9   0   degeneracy:  1
      vector   0  -8   0   degeneracy:  1
      vector   0  -7   0   degeneracy:  1
      vector   0  -6   0   degeneracy:  1
      vector   0  -5   0   degeneracy:  1
      vector   0  -4   0   degeneracy:  1
      vector   0  -3   0   degeneracy:  1
      vector   0  -2   0   degeneracy:  1
      vector   0  -1   0   degeneracy:  1
      vector   0   0   0   degeneracy:  1
      vector   0   1   0   degeneracy:  1
      vector   0   2   0   degeneracy:  1
      vector   0   3   0   degeneracy:  1
      vector   0   4   0   degeneracy:  1
      vector   0   5   0   degeneracy:  1
      vector   0   6   0   degeneracy:  1
      vector   0   7   0   degeneracy:  1
      vector   0   8   0   degeneracy:  1
      vector   0   9   0   degeneracy:  1
      vector   0  10   0   degeneracy:  1
      vector   0  11   0   degeneracy:  1
      vector   0  12   0   degeneracy:  1
      vector   1 -11   0   degeneracy:  1
      vector   1 -10   0   degeneracy:  1
      vector   1  -9   0   degeneracy:  1
      vector   1  -8   0   degeneracy:  1
      vector   1  -7   0   degeneracy:  1
      vector   1  -6   0   degeneracy:  1
      vector   1  -5   0   degeneracy:  1
      vector   1  -4   0   degeneracy:  1
      vector   1  -3   0   degeneracy:  1
      vector   1  -2   0   degeneracy:  1
      vector   1  -1   0   degeneracy:  1
      vector   1   0   0   degeneracy:  1
      vector   1   1   0   degeneracy:  1
      vector   1   2   0   degeneracy:  1
      vector   1   3   0   degeneracy:  1
      vector   1   4   0   degeneracy:  1
      vector   1   5   0   degeneracy:  1
      vector   1   6   0   degeneracy:  1
      vector   1   7   0   degeneracy:  1
      vector   1   8   0   degeneracy:  1
      vector   1   9   0   degeneracy:  1
      vector   1  10   0   degeneracy:  1
      vector   1  11   0   degeneracy:  1
      vector   1  12   0   degeneracy:  1
      vector   1  13   0   degeneracy:  1
      vector   2 -11   0   degeneracy:  1
      vector   2 -10   0   degeneracy:  1
      vector   2  -9   0   degeneracy:  1
      vector   2  -8   0   degeneracy:  1
      vector   2  -7   0   degeneracy:  1
      vector   2  -6   0   degeneracy:  1
      vector   2  -5   0   degeneracy:  1
      vector   2  -4   0   degeneracy:  1
      vector   2  -3   0   degeneracy:  1
      vector   2  -2   0   degeneracy:  1
      vector   2  -1   0   degeneracy:  1
      vector   2   0   0   degeneracy:  1
      vector   2   1   0   degeneracy:  1
      vector   2   2   0   degeneracy:  1
      vector   2   3   0   degeneracy:  1
      vector   2   4   0   degeneracy:  1
      vector   2   5   0   degeneracy:  1
      vector   2   6   0   degeneracy:  1
      vector   2   7   0   degeneracy:  1
      vector   2   8   0   degeneracy:  1
      vector   2   9   0   degeneracy:  1
      vector   2  10   0   degeneracy:  1
      vector   2  11   0   degeneracy:  1
      vector   2  12   0   degeneracy:  1
      vector   2  13   0   degeneracy:  1
      vector   3 -10   0   degeneracy:  1
      vector   3  -9   0   degeneracy:  1
      vector   3  -8   0   degeneracy:  1
      vector   3  -7   0   degeneracy:  1
      vector   3  -6   0   degeneracy:  1
      vector   3  -5   0   degeneracy:  1
      vector   3  -4   0   degeneracy:  1
      vector   3  -3   0   degeneracy:  1
      vector   3  -2   0   degeneracy:  1
      vector   3  -1   0   degeneracy:  1
      vector   3   0   0   degeneracy:  1
      vector   3   1   0   degeneracy:  1
      vector   3   2   0   degeneracy:  1
      vector   3   3   0   degeneracy:  1
      vector   3   4   0   degeneracy:  1
      vector   3   5   0   degeneracy:  1
      vector   3   6   0   degeneracy:  1
      vector   3   7   0   degeneracy:  1
      vector   3   8   0   degeneracy:  1
      vector   3   9   0   degeneracy:  1
      vector   3  10   0   degeneracy:  1
      vector   3  11   0   degeneracy:  1
      vector   3  12   0   degeneracy:  1
      vector   3  13   0   degeneracy:  1
      vector   3  14   0   degeneracy:  1
      vector   4 -10   0   degeneracy:  1
      vector   4  -9   0   degeneracy:  1
      vector   4  -8   0   degeneracy:  1
      vector   4  -7   0   degeneracy:  1
      vector   4  -6   0   degeneracy:  1
      vector   4  -5   0   degeneracy:  1
      vector   4  -4   0   degeneracy:  1
      vector   4  -3   0   degeneracy:  1
      vector   4  -2   0   degeneracy:  1
      vector   4  -1   0   degeneracy:  1
      vector   4   0   0   degeneracy:  1
      vector   4   1   0   degeneracy:  1
      vector   4   2   0   degeneracy:  1
      vector   4   3   0   degeneracy:  1
      vector   4   4   0   degeneracy:  1
      vector   4   5   0   degeneracy:  1
      vector   4   6   0   degeneracy:  1
      vector   4   7   0   degeneracy:  1
      vector   4   8   0   degeneracy:  1
      vector   4   9   0   degeneracy:  1
      vector   4  10   0   degeneracy:  1
      vector   4  11   0   degeneracy:  1
      vector   4  12   0   degeneracy:  1
      vector   4  13   0   degeneracy:  1
      vector   4  14   0   degeneracy:  1
      vector   5  -9   0   degeneracy:  1
      vector   5  -8   0   degeneracy:  1
      vector   5  -7   0   degeneracy:  1
      vector   5  -6   0   degeneracy:  1
      vector   5  -5   0   degeneracy:  1
      vector   5  -4   0   degeneracy:  1
      vector   5  -3   0   degeneracy:  1
      vector   5  -2   0   degeneracy:  1
      vector   5  -1   0   degeneracy:  1
      vector   5   0   0   degeneracy:  1
      vector   5   1   0   degeneracy:  1
      vector   5   2   0   degeneracy:  1
      vector   5   3   0   degeneracy:  1
      vector   5   4   0   degeneracy:  1
      vector   5   5   0   degeneracy:  1
      vector   5   6   0   degeneracy:  1
      vector   5   7   0   degeneracy:  1
      vector   5   8   0   degeneracy:  1
      vector   5   9   0   degeneracy:  1
      vector   5  10   0   degeneracy:  1
      vector   5  11   0   degeneracy:  1
      vector   5  12   0   degeneracy:  1
      vector   5  13   0   degeneracy:  1
      vector   5  14   0   degeneracy:  1
      vector   5  15   0   degeneracy:  1
      vector   6  -9   0   degeneracy:  1
      vector   6  -8   0   degeneracy:  1
      vector   6  -7   0   degeneracy:  1
      vector   6  -6   0   degeneracy:  1
      vector   6  -5   0   degeneracy:  1
      vector   6  -4   0   degeneracy:  1
      vector   6  -3   0   degeneracy:  1
      vector   6  -2   0   degeneracy:  1
      vector   6  -1   0   degeneracy:  1
      vector   6   0   0   degeneracy:  1
      vector   6   1   0   degeneracy:  1
      vector   6   2   0   degeneracy:  1
      vector   6   3   0   degeneracy:  1
      vector   6   4   0   degeneracy:  1
      vector   6   5   0   degeneracy:  1
      vector   6   6   0   degeneracy:  1
      vector   6   7   0   degeneracy:  1
      vector   6   8   0   degeneracy:  1
      vector   6   9   0   degeneracy:  1
      vector   6  10   0   degeneracy:  1
      vector   6  11   0   degeneracy:  1
      vector   6  12   0   degeneracy:  1
      vector   6  13   0   degeneracy:  1
      vector   6  14   0   degeneracy:  1
      vector   6  15   0   degeneracy:  1
      vector   7  -8   0   degeneracy:  1
      vector   7  -7   0   degeneracy:  1
      vector   7  -6   0   degeneracy:  1
      vector   7  -5   0   degeneracy:  1
      vector   7  -4   0   degeneracy:  1
      vector   7  -3   0   degeneracy:  1
      vector   7  -2   0   degeneracy:  1
      vector   7  -1   0   degeneracy:  1
      vector   7   0   0   degeneracy:  1
      vector   7   1   0   degeneracy:  1
      vector   7   2   0   degeneracy:  1
      vector   7   3   0   degeneracy:  1
      vector   7   4   0   degeneracy:  1
      vector   7   5   0   degeneracy:  1
      vector   7   6   0   degeneracy:  1
      vector   7   7   0   degeneracy:  1
      vector   7   8   0   degeneracy:  1
      vector   7   9   0   degeneracy:  1
      vector   7  10   0   degeneracy:  1
      vector   7  11   0   degeneracy:  1
      vector   7  12   0   degeneracy:  1
      vector   7  13   0   degeneracy:  1
      vector   7  14   0   degeneracy:  1
      vector   7  15   0   degeneracy:  1
      vector   7  16   0   degeneracy:  1
      vector   8  -8   0   degeneracy:  1
      vector   8  -7   0   degeneracy:  1
      vector   8  -6   0   degeneracy:  1
      vector   8  -5   0   degeneracy:  1
      vector   8  -4   0   degeneracy:  1
      vector   8  -3   0   degeneracy:  1
      vector   8  -2   0   degeneracy:  1
      vector   8  -1   0   degeneracy:  1
      vector   8   0   0   degeneracy:  1
      vector   8   1   0   degeneracy:  1
      vector   8   2   0   degeneracy:  1
      vector   8   3   0   degeneracy:  1
      vector   8   4   0   degeneracy:  1
      vector   8   5   0   degeneracy:  1
      vector   8   6   0   degeneracy:  1
      vector   8   7   0   degeneracy:  1
      vector   8   8   0   degeneracy:  1
      vector   8   9   0   degeneracy:  1
      vector   8  10   0   degeneracy:  1
      vector   8  11   0   degeneracy:  1
      vector   8  12   0   degeneracy:  1
      vector   8  13   0   degeneracy:  1
      vector   8  14   0   degeneracy:  1
      vector   8  15   0   degeneracy:  1
      vector   8  16   0   degeneracy:  1
      vector   9  -6   0   degeneracy:  1
      vector   9  -5   0   degeneracy:  1
      vector   9  -4   0   degeneracy:  1
      vector   9  -3   0   degeneracy:  1
      vector   9  -2   0   degeneracy:  1
      vector   9  -1   0   degeneracy:  1
      vector   9   0   0   degeneracy:  1
      vector   9   1   0   degeneracy:  1
      vector   9   2   0   degeneracy:  1
      vector   9   3   0   degeneracy:  1
      vector   9   4   0   degeneracy:  1
      vector   9   5   0   degeneracy:  1
      vector   9   6   0   degeneracy:  1
      vector   9   7   0   degeneracy:  1
      vector   9   8   0   degeneracy:  1
      vector   9   9   0   degeneracy:  1
      vector   9  10   0   degeneracy:  1
      vector   9  11   0   degeneracy:  1
      vector   9  12   0   degeneracy:  1
      vector   9  13   0   degeneracy:  1
      vector   9  14   0   degeneracy:  1
      vector   9  15   0   degeneracy:  1
      vector  10  -4   0   degeneracy:  1
      vector  10  -3   0   degeneracy:  1
      vector  10  -2   0   degeneracy:  1
      vector  10  -1   0   degeneracy:  1
      vector  10   0   0   degeneracy:  1
      vector  10   1   0   degeneracy:  1
      vector  10   2   0   degeneracy:  1
      vector  10   3   0   degeneracy:  1
      vector  10   4   0   degeneracy:  1
      vector  10   5   0   degeneracy:  1
      vector  10   6   0   degeneracy:  1
      vector  10   7   0   degeneracy:  1
      vector  10   8   0   degeneracy:  1
      vector  10   9   0   degeneracy:  1
      vector  10  10   0   degeneracy:  1
      vector  10  11   0   degeneracy:  1
      vector  10  12   0   degeneracy:  1
      vector  10  13   0   degeneracy:  1
      vector  10  14   0   degeneracy:  1
      vector  11  -2   0   degeneracy:  1
      vector  11  -1   0   degeneracy:  1
      vector  11   0   0   degeneracy:  1
      vector  11   1   0   degeneracy:  1
      vector  11   2   0   degeneracy:  1
      vector  11   3   0   degeneracy:  1
      vector  11   4   0   degeneracy:  1
      vector  11   5   0   degeneracy:  1
      vector  11   6   0   degeneracy:  1
      vector  11   7   0   degeneracy:  1
      vector  11   8   0   degeneracy:  1
      vector  11   9   0   degeneracy:  1
      vector  11  10   0   degeneracy:  1
      vector  11  11   0   degeneracy:  1
      vector  11  12   0   degeneracy:  1
      vector  11  13   0   degeneracy:  1
      vector  12   0   0   degeneracy:  1
      vector  12   1   0   degeneracy:  1
      vector  12   2   0   degeneracy:  1
      vector  12   3   0   degeneracy:  1
      vector  12   4   0   degeneracy:  1
      vector  12   5   0   degeneracy:  1
      vector  12   6   0   degeneracy:  1
      vector  12   7   0   degeneracy:  1
      vector  12   8   0   degeneracy:  1
      vector  12   9   0   degeneracy:  1
      vector  12  10   0   degeneracy:  1
      vector  12  11   0   degeneracy:  1
      vector  12  12   0   degeneracy:  1
      vector  13   1   0   degeneracy:  1
      vector  13   2   0   degeneracy:  1
      vector  13   3   0   degeneracy:  1
      vector  13   4   0   degeneracy:  1
      vector  13   5   0   degeneracy:  1
      vector  13   6   0   degeneracy:  1
      vector  13   7   0   degeneracy:  1
      vector  13   8   0   degeneracy:  1
      vector  13   9   0   degeneracy:  1
      vector  13  10   0   degeneracy:  1
      vector  13  11   0   degeneracy:  1
      vector  13  12   0   degeneracy:  1
      vector  14   3   0   degeneracy:  1
      vector  14   4   0   degeneracy:  1
      vector  14   5   0   degeneracy:  1
      vector  14   6   0   degeneracy:  1
      vector  14   7   0   degeneracy:  1
      vector  14   8   0   degeneracy:  1
      vector  14   9   0   degeneracy:  1
      vector  14  10   0   degeneracy:  1
      vector  14  11   0   degeneracy:  1
      vector  15   5   0   degeneracy:  1
      vector  15   6   0   degeneracy:  1
      vector  15   7   0   degeneracy:  1
      vector  15   8   0   degeneracy:  1
      vector  15   9   0   degeneracy:  1
      vector  15  10   0   degeneracy:  1
      vector  16   7   0   degeneracy:  1
      vector  16   8   0   degeneracy:  1
      vector  16   9   0   degeneracy:  1
  tot =      625.000
  mp_grid product =          625
 
 Calculating interpolated band-structure
 
 Time to calculate interpolated band structure       8.435 (sec)
 
 Time for plotting             71.687 (sec)
 Total Execution Time          81.497 (sec)

 *===========================================================================*
 |                             TIMING INFORMATION                            |
 *===========================================================================*
 |    Tag                                                Ncalls      Time (s)|
 |---------------------------------------------------------------------------|
 |kmesh: get                                        :         1         0.428|
 |overlap: allocate                                 :         1         0.002|
 |overlap: read                                     :         1         3.917|
 |dis: main                                         :         1         2.432|
 |wann: main                                        :         1         2.874|
 |plot: main                                        :         1        71.687|
 *---------------------------------------------------------------------------*
 
 All done: wannier90 exiting
