Automatically generated mesh
     361
Reciprocal lattice
    0.00000000000000    0.00000000000000    0.00000000000000             1
    0.05263157894737   -0.00000000000000    0.00000000000000             1
    0.10526315789474   -0.00000000000000    0.00000000000000             1
    0.15789473684210   -0.00000000000000    0.00000000000000             1
    0.21052631578947   -0.00000000000000    0.00000000000000             1
    0.26315789473684   -0.00000000000000    0.00000000000000             1
    0.31578947368421    0.00000000000000    0.00000000000000             1
    0.36842105263158    0.00000000000000    0.00000000000000             1
    0.42105263157895   -0.00000000000000    0.00000000000000             1
    0.47368421052632    0.00000000000000    0.00000000000000             1
   -0.47368421052632   -0.00000000000000   -0.00000000000000             1
   -0.42105263157895    0.00000000000000    0.00000000000000             1
   -0.36842105263158    0.00000000000000   -0.00000000000000             1
   -0.31578947368421   -0.00000000000000   -0.00000000000000             1
   -0.26315789473684    0.00000000000000   -0.00000000000000             1
   -0.21052631578947    0.00000000000000    0.00000000000000             1
   -0.15789473684210    0.00000000000000   -0.00000000000000             1
   -0.10526315789474    0.00000000000000   -0.00000000000000             1
   -0.05263157894737    0.00000000000000   -0.00000000000000             1
    0.00000000000000    0.05263157894737    0.00000000000000             1
    0.05263157894737    0.05263157894737   -0.00000000000000             1
    0.10526315789474    0.05263157894737    0.00000000000000             1
    0.15789473684210    0.05263157894737    0.00000000000000             1
    0.21052631578947    0.05263157894737   -0.00000000000000             1
    0.26315789473684    0.05263157894737    0.00000000000000             1
    0.31578947368421    0.05263157894737    0.00000000000000             1
    0.36842105263158    0.05263157894737   -0.00000000000000             1
    0.42105263157895    0.05263157894737    0.00000000000000             1
    0.47368421052632    0.05263157894737    0.00000000000000             1
   -0.47368421052632    0.05263157894737   -0.00000000000000             1
   -0.42105263157895    0.05263157894737   -0.00000000000000             1
   -0.36842105263158    0.05263157894737    0.00000000000000             1
   -0.31578947368421    0.05263157894737   -0.00000000000000             1
   -0.26315789473684    0.05263157894737   -0.00000000000000             1
   -0.21052631578947    0.05263157894737    0.00000000000000             1
   -0.15789473684210    0.05263157894737   -0.00000000000000             1
   -0.10526315789474    0.05263157894737   -0.00000000000000             1
   -0.05263157894737    0.05263157894737   -0.00000000000000             1
    0.00000000000000    0.10526315789474    0.00000000000000             1
    0.05263157894737    0.10526315789474    0.00000000000000             1
    0.10526315789474    0.10526315789474   -0.00000000000000             1
    0.15789473684210    0.10526315789474    0.00000000000000             1
    0.21052631578947    0.10526315789474    0.00000000000000             1
    0.26315789473684    0.10526315789474    0.00000000000000             1
    0.31578947368421    0.10526315789474    0.00000000000000             1
    0.36842105263158    0.10526315789474   -0.00000000000000             1
    0.42105263157895    0.10526315789474   -0.00000000000000             1
    0.47368421052632    0.10526315789474    0.00000000000000             1
   -0.47368421052632    0.10526315789474    0.00000000000000             1
   -0.42105263157895    0.10526315789474    0.00000000000000             1
   -0.36842105263158    0.10526315789474   -0.00000000000000             1
   -0.31578947368421    0.10526315789474   -0.00000000000000             1
   -0.26315789473684    0.10526315789474   -0.00000000000000             1
   -0.21052631578947    0.10526315789474    0.00000000000000             1
   -0.15789473684210    0.10526315789474   -0.00000000000000             1
   -0.10526315789474    0.10526315789474   -0.00000000000000             1
   -0.05263157894737    0.10526315789474    0.00000000000000             1
   -0.00000000000000    0.15789473684210    0.00000000000000             1
    0.05263157894737    0.15789473684210   -0.00000000000000             1
    0.10526315789474    0.15789473684210    0.00000000000000             1
    0.15789473684210    0.15789473684210    0.00000000000000             1
    0.21052631578947    0.15789473684210    0.00000000000000             1
    0.26315789473684    0.15789473684210    0.00000000000000             1
    0.31578947368421    0.15789473684210    0.00000000000000             1
    0.36842105263158    0.15789473684210    0.00000000000000             1
    0.42105263157895    0.15789473684210   -0.00000000000000             1
    0.47368421052632    0.15789473684210    0.00000000000000             1
   -0.47368421052632    0.15789473684210   -0.00000000000000             1
   -0.42105263157895    0.15789473684210   -0.00000000000000             1
   -0.36842105263158    0.15789473684210    0.00000000000000             1
   -0.31578947368421    0.15789473684210   -0.00000000000000             1
   -0.26315789473684    0.15789473684210   -0.00000000000000             1
   -0.21052631578947    0.15789473684210    0.00000000000000             1
   -0.15789473684210    0.15789473684210    0.00000000000000             1
   -0.10526315789474    0.15789473684210   -0.00000000000000             1
   -0.05263157894737    0.15789473684210    0.00000000000000             1
   -0.00000000000000    0.21052631578947    0.00000000000000             1
    0.05263157894737    0.21052631578947    0.00000000000000             1
    0.10526315789474    0.21052631578947    0.00000000000000             1
    0.15789473684210    0.21052631578947    0.00000000000000             1
    0.21052631578947    0.21052631578947    0.00000000000000             1
    0.26315789473684    0.21052631578947    0.00000000000000             1
    0.31578947368421    0.21052631578947    0.00000000000000             1
    0.36842105263158    0.21052631578947    0.00000000000000             1
    0.42105263157895    0.21052631578947    0.00000000000000             1
    0.47368421052632    0.21052631578947   -0.00000000000000             1
   -0.47368421052632    0.21052631578947   -0.00000000000000             1
   -0.42105263157895    0.21052631578947    0.00000000000000             1
   -0.36842105263158    0.21052631578947   -0.00000000000000             1
   -0.31578947368421    0.21052631578947   -0.00000000000000             1
   -0.26315789473684    0.21052631578947    0.00000000000000             1
   -0.21052631578947    0.21052631578947   -0.00000000000000             1
   -0.15789473684210    0.21052631578947   -0.00000000000000             1
   -0.10526315789474    0.21052631578947   -0.00000000000000             1
   -0.05263157894737    0.21052631578947   -0.00000000000000             1
   -0.00000000000000    0.26315789473684   -0.00000000000000             1
    0.05263157894737    0.26315789473684    0.00000000000000             1
    0.10526315789474    0.26315789473684    0.00000000000000             1
    0.15789473684210    0.26315789473684    0.00000000000000             1
    0.21052631578947    0.26315789473684    0.00000000000000             1
    0.26315789473684    0.26315789473684    0.00000000000000             1
    0.31578947368421    0.26315789473684    0.00000000000000             1
    0.36842105263158    0.26315789473684    0.00000000000000             1
    0.42105263157895    0.26315789473684    0.00000000000000             1
    0.47368421052632    0.26315789473684    0.00000000000000             1
   -0.47368421052632    0.26315789473684    0.00000000000000             1
   -0.42105263157895    0.26315789473684    0.00000000000000             1
   -0.36842105263158    0.26315789473684    0.00000000000000             1
   -0.31578947368421    0.26315789473684   -0.00000000000000             1
   -0.26315789473684    0.26315789473684    0.00000000000000             1
   -0.21052631578947    0.26315789473684    0.00000000000000             1
   -0.15789473684210    0.26315789473684   -0.00000000000000             1
   -0.10526315789474    0.26315789473684   -0.00000000000000             1
   -0.05263157894737    0.26315789473684   -0.00000000000000             1
   -0.00000000000000    0.31578947368421    0.00000000000000             1
    0.05263157894737    0.31578947368421    0.00000000000000             1
    0.10526315789474    0.31578947368421   -0.00000000000000             1
    0.15789473684210    0.31578947368421    0.00000000000000             1
    0.21052631578947    0.31578947368421    0.00000000000000             1
    0.26315789473684    0.31578947368421    0.00000000000000             1
    0.31578947368421    0.31578947368421    0.00000000000000             1
    0.36842105263158    0.31578947368421    0.00000000000000             1
    0.42105263157895    0.31578947368421    0.00000000000000             1
    0.47368421052632    0.31578947368421    0.00000000000000             1
   -0.47368421052632    0.31578947368421    0.00000000000000             1
   -0.42105263157895    0.31578947368421    0.00000000000000             1
   -0.36842105263158    0.31578947368421   -0.00000000000000             1
   -0.31578947368421    0.31578947368421    0.00000000000000             1
   -0.26315789473684    0.31578947368421    0.00000000000000             1
   -0.21052631578947    0.31578947368421    0.00000000000000             1
   -0.15789473684210    0.31578947368421   -0.00000000000000             1
   -0.10526315789474    0.31578947368421   -0.00000000000000             1
   -0.05263157894737    0.31578947368421    0.00000000000000             1
   -0.00000000000000    0.36842105263158    0.00000000000000             1
    0.05263157894737    0.36842105263158   -0.00000000000000             1
    0.10526315789474    0.36842105263158   -0.00000000000000             1
    0.15789473684210    0.36842105263158    0.00000000000000             1
    0.21052631578947    0.36842105263158    0.00000000000000             1
    0.26315789473684    0.36842105263158    0.00000000000000             1
    0.31578947368421    0.36842105263158    0.00000000000000             1
    0.36842105263158    0.36842105263158    0.00000000000000             1
    0.42105263157895    0.36842105263158   -0.00000000000000             1
    0.47368421052632    0.36842105263158    0.00000000000000             1
   -0.47368421052632    0.36842105263158   -0.00000000000000             1
   -0.42105263157895    0.36842105263158    0.00000000000000             1
   -0.36842105263158    0.36842105263158   -0.00000000000000             1
   -0.31578947368421    0.36842105263158   -0.00000000000000             1
   -0.26315789473684    0.36842105263158    0.00000000000000             1
   -0.21052631578947    0.36842105263158    0.00000000000000             1
   -0.15789473684210    0.36842105263158    0.00000000000000             1
   -0.10526315789474    0.36842105263158    0.00000000000000             1
   -0.05263157894737    0.36842105263158    0.00000000000000             1
   -0.00000000000000    0.42105263157895    0.00000000000000             1
    0.05263157894737    0.42105263157895   -0.00000000000000             1
    0.10526315789474    0.42105263157895    0.00000000000000             1
    0.15789473684210    0.42105263157895   -0.00000000000000             1
    0.21052631578947    0.42105263157895    0.00000000000000             1
    0.26315789473684    0.42105263157895    0.00000000000000             1
    0.31578947368421    0.42105263157895    0.00000000000000             1
    0.36842105263158    0.42105263157895    0.00000000000000             1
    0.42105263157895    0.42105263157895    0.00000000000000             1
    0.47368421052632    0.42105263157895    0.00000000000000             1
   -0.47368421052632    0.42105263157895    0.00000000000000             1
   -0.42105263157895    0.42105263157895   -0.00000000000000             1
   -0.36842105263158    0.42105263157895   -0.00000000000000             1
   -0.31578947368421    0.42105263157895   -0.00000000000000             1
   -0.26315789473684    0.42105263157895   -0.00000000000000             1
   -0.21052631578947    0.42105263157895    0.00000000000000             1
   -0.15789473684210    0.42105263157895   -0.00000000000000             1
   -0.10526315789474    0.42105263157895   -0.00000000000000             1
   -0.05263157894737    0.42105263157895   -0.00000000000000             1
   -0.00000000000000    0.47368421052632    0.00000000000000             1
    0.05263157894737    0.47368421052632   -0.00000000000000             1
    0.10526315789474    0.47368421052632   -0.00000000000000             1
    0.15789473684210    0.47368421052632    0.00000000000000             1
    0.21052631578947    0.47368421052632    0.00000000000000             1
    0.26315789473684    0.47368421052632    0.00000000000000             1
    0.31578947368421    0.47368421052632    0.00000000000000             1
    0.36842105263158    0.47368421052632   -0.00000000000000             1
    0.42105263157895    0.47368421052632    0.00000000000000             1
    0.47368421052632    0.47368421052632    0.00000000000000             1
   -0.47368421052632    0.47368421052632   -0.00000000000000             1
   -0.42105263157895    0.47368421052632   -0.00000000000000             1
   -0.36842105263158    0.47368421052632   -0.00000000000000             1
   -0.31578947368421    0.47368421052632   -0.00000000000000             1
   -0.26315789473684    0.47368421052632   -0.00000000000000             1
   -0.21052631578947    0.47368421052632    0.00000000000000             1
   -0.15789473684210    0.47368421052632    0.00000000000000             1
   -0.10526315789474    0.47368421052632   -0.00000000000000             1
   -0.05263157894737    0.47368421052632   -0.00000000000000             1
    0.00000000000000   -0.47368421052632   -0.00000000000000             1
    0.05263157894737   -0.47368421052632    0.00000000000000             1
    0.10526315789474   -0.47368421052632    0.00000000000000             1
    0.15789473684210   -0.47368421052632   -0.00000000000000             1
    0.21052631578947   -0.47368421052632    0.00000000000000             1
    0.26315789473684   -0.47368421052632    0.00000000000000             1
    0.31578947368421   -0.47368421052632    0.00000000000000             1
    0.36842105263158   -0.47368421052632    0.00000000000000             1
    0.42105263157895   -0.47368421052632    0.00000000000000             1
    0.47368421052632   -0.47368421052632    0.00000000000000             1
   -0.47368421052632   -0.47368421052632   -0.00000000000000             1
   -0.42105263157895   -0.47368421052632   -0.00000000000000             1
   -0.36842105263158   -0.47368421052632    0.00000000000000             1
   -0.31578947368421   -0.47368421052632   -0.00000000000000             1
   -0.26315789473684   -0.47368421052632    0.00000000000000             1
   -0.21052631578947   -0.47368421052632   -0.00000000000000             1
   -0.15789473684210   -0.47368421052632   -0.00000000000000             1
   -0.10526315789474   -0.47368421052632    0.00000000000000             1
   -0.05263157894737   -0.47368421052632    0.00000000000000             1
    0.00000000000000   -0.42105263157895    0.00000000000000             1
    0.05263157894737   -0.42105263157895    0.00000000000000             1
    0.10526315789474   -0.42105263157895    0.00000000000000             1
    0.15789473684210   -0.42105263157895    0.00000000000000             1
    0.21052631578947   -0.42105263157895    0.00000000000000             1
    0.26315789473684   -0.42105263157895    0.00000000000000             1
    0.31578947368421   -0.42105263157895    0.00000000000000             1
    0.36842105263158   -0.42105263157895   -0.00000000000000             1
    0.42105263157895   -0.42105263157895    0.00000000000000             1
    0.47368421052632   -0.42105263157895    0.00000000000000             1
   -0.47368421052632   -0.42105263157895   -0.00000000000000             1
   -0.42105263157895   -0.42105263157895   -0.00000000000000             1
   -0.36842105263158   -0.42105263157895   -0.00000000000000             1
   -0.31578947368421   -0.42105263157895   -0.00000000000000             1
   -0.26315789473684   -0.42105263157895   -0.00000000000000             1
   -0.21052631578947   -0.42105263157895   -0.00000000000000             1
   -0.15789473684210   -0.42105263157895    0.00000000000000             1
   -0.10526315789474   -0.42105263157895    0.00000000000000             1
   -0.05263157894737   -0.42105263157895    0.00000000000000             1
    0.00000000000000   -0.36842105263158    0.00000000000000             1
    0.05263157894737   -0.36842105263158    0.00000000000000             1
    0.10526315789474   -0.36842105263158    0.00000000000000             1
    0.15789473684210   -0.36842105263158    0.00000000000000             1
    0.21052631578947   -0.36842105263158    0.00000000000000             1
    0.26315789473684   -0.36842105263158    0.00000000000000             1
    0.31578947368421   -0.36842105263158    0.00000000000000             1
    0.36842105263158   -0.36842105263158    0.00000000000000             1
    0.42105263157895   -0.36842105263158    0.00000000000000             1
    0.47368421052632   -0.36842105263158    0.00000000000000             1
   -0.47368421052632   -0.36842105263158   -0.00000000000000             1
   -0.42105263157895   -0.36842105263158    0.00000000000000             1
   -0.36842105263158   -0.36842105263158   -0.00000000000000             1
   -0.31578947368421   -0.36842105263158   -0.00000000000000             1
   -0.26315789473684   -0.36842105263158   -0.00000000000000             1
   -0.21052631578947   -0.36842105263158    0.00000000000000             1
   -0.15789473684210   -0.36842105263158   -0.00000000000000             1
   -0.10526315789474   -0.36842105263158    0.00000000000000             1
   -0.05263157894737   -0.36842105263158    0.00000000000000             1
    0.00000000000000   -0.31578947368421    0.00000000000000             1
    0.05263157894737   -0.31578947368421    0.00000000000000             1
    0.10526315789474   -0.31578947368421    0.00000000000000             1
    0.15789473684210   -0.31578947368421    0.00000000000000             1
    0.21052631578947   -0.31578947368421    0.00000000000000             1
    0.26315789473684   -0.31578947368421    0.00000000000000             1
    0.31578947368421   -0.31578947368421   -0.00000000000000             1
    0.36842105263158   -0.31578947368421   -0.00000000000000             1
    0.42105263157895   -0.31578947368421   -0.00000000000000             1
    0.47368421052632   -0.31578947368421    0.00000000000000             1
   -0.47368421052632   -0.31578947368421    0.00000000000000             1
   -0.42105263157895   -0.31578947368421   -0.00000000000000             1
   -0.36842105263158   -0.31578947368421   -0.00000000000000             1
   -0.31578947368421   -0.31578947368421   -0.00000000000000             1
   -0.26315789473684   -0.31578947368421   -0.00000000000000             1
   -0.21052631578947   -0.31578947368421   -0.00000000000000             1
   -0.15789473684210   -0.31578947368421   -0.00000000000000             1
   -0.10526315789474   -0.31578947368421    0.00000000000000             1
   -0.05263157894737   -0.31578947368421    0.00000000000000             1
    0.00000000000000   -0.26315789473684    0.00000000000000             1
    0.05263157894737   -0.26315789473684    0.00000000000000             1
    0.10526315789474   -0.26315789473684    0.00000000000000             1
    0.15789473684210   -0.26315789473684    0.00000000000000             1
    0.21052631578947   -0.26315789473684    0.00000000000000             1
    0.26315789473684   -0.26315789473684    0.00000000000000             1
    0.31578947368421   -0.26315789473684    0.00000000000000             1
    0.36842105263158   -0.26315789473684    0.00000000000000             1
    0.42105263157895   -0.26315789473684   -0.00000000000000             1
    0.47368421052632   -0.26315789473684   -0.00000000000000             1
   -0.47368421052632   -0.26315789473684    0.00000000000000             1
   -0.42105263157895   -0.26315789473684   -0.00000000000000             1
   -0.36842105263158   -0.26315789473684    0.00000000000000             1
   -0.31578947368421   -0.26315789473684   -0.00000000000000             1
   -0.26315789473684   -0.26315789473684    0.00000000000000             1
   -0.21052631578947   -0.26315789473684    0.00000000000000             1
   -0.15789473684210   -0.26315789473684   -0.00000000000000             1
   -0.10526315789474   -0.26315789473684    0.00000000000000             1
   -0.05263157894737   -0.26315789473684    0.00000000000000             1
    0.00000000000000   -0.21052631578947    0.00000000000000             1
    0.05263157894737   -0.21052631578947    0.00000000000000             1
    0.10526315789474   -0.21052631578947    0.00000000000000             1
    0.15789473684210   -0.21052631578947    0.00000000000000             1
    0.21052631578947   -0.21052631578947    0.00000000000000             1
    0.26315789473684   -0.21052631578947    0.00000000000000             1
    0.31578947368421   -0.21052631578947    0.00000000000000             1
    0.36842105263158   -0.21052631578947    0.00000000000000             1
    0.42105263157895   -0.21052631578947    0.00000000000000             1
    0.47368421052632   -0.21052631578947    0.00000000000000             1
   -0.47368421052632   -0.21052631578947    0.00000000000000             1
   -0.42105263157895   -0.21052631578947   -0.00000000000000             1
   -0.36842105263158   -0.21052631578947    0.00000000000000             1
   -0.31578947368421   -0.21052631578947   -0.00000000000000             1
   -0.26315789473684   -0.21052631578947   -0.00000000000000             1
   -0.21052631578947   -0.21052631578947   -0.00000000000000             1
   -0.15789473684210   -0.21052631578947   -0.00000000000000             1
   -0.10526315789474   -0.21052631578947    0.00000000000000             1
   -0.05263157894737   -0.21052631578947    0.00000000000000             1
    0.00000000000000   -0.15789473684210   -0.00000000000000             1
    0.05263157894737   -0.15789473684210    0.00000000000000             1
    0.10526315789474   -0.15789473684210    0.00000000000000             1
    0.15789473684210   -0.15789473684210    0.00000000000000             1
    0.21052631578947   -0.15789473684210   -0.00000000000000             1
    0.26315789473684   -0.15789473684210    0.00000000000000             1
    0.31578947368421   -0.15789473684210    0.00000000000000             1
    0.36842105263158   -0.15789473684210    0.00000000000000             1
    0.42105263157895   -0.15789473684210    0.00000000000000             1
    0.47368421052632   -0.15789473684210    0.00000000000000             1
   -0.47368421052632   -0.15789473684210    0.00000000000000             1
   -0.42105263157895   -0.15789473684210    0.00000000000000             1
   -0.36842105263158   -0.15789473684210   -0.00000000000000             1
   -0.31578947368421   -0.15789473684210   -0.00000000000000             1
   -0.26315789473684   -0.15789473684210    0.00000000000000             1
   -0.21052631578947   -0.15789473684210   -0.00000000000000             1
   -0.15789473684210   -0.15789473684210   -0.00000000000000             1
   -0.10526315789474   -0.15789473684210    0.00000000000000             1
   -0.05263157894737   -0.15789473684210    0.00000000000000             1
    0.00000000000000   -0.10526315789474   -0.00000000000000             1
    0.05263157894737   -0.10526315789474    0.00000000000000             1
    0.10526315789474   -0.10526315789474    0.00000000000000             1
    0.15789473684210   -0.10526315789474    0.00000000000000             1
    0.21052631578947   -0.10526315789474    0.00000000000000             1
    0.26315789473684   -0.10526315789474    0.00000000000000             1
    0.31578947368421   -0.10526315789474    0.00000000000000             1
    0.36842105263158   -0.10526315789474    0.00000000000000             1
    0.42105263157895   -0.10526315789474    0.00000000000000             1
    0.47368421052632   -0.10526315789474    0.00000000000000             1
   -0.47368421052632   -0.10526315789474   -0.00000000000000             1
   -0.42105263157895   -0.10526315789474    0.00000000000000             1
   -0.36842105263158   -0.10526315789474   -0.00000000000000             1
   -0.31578947368421   -0.10526315789474   -0.00000000000000             1
   -0.26315789473684   -0.10526315789474    0.00000000000000             1
   -0.21052631578947   -0.10526315789474    0.00000000000000             1
   -0.15789473684210   -0.10526315789474   -0.00000000000000             1
   -0.10526315789474   -0.10526315789474    0.00000000000000             1
   -0.05263157894737   -0.10526315789474   -0.00000000000000             1
    0.00000000000000   -0.05263157894737   -0.00000000000000             1
    0.05263157894737   -0.05263157894737    0.00000000000000             1
    0.10526315789474   -0.05263157894737    0.00000000000000             1
    0.15789473684210   -0.05263157894737    0.00000000000000             1
    0.21052631578947   -0.05263157894737    0.00000000000000             1
    0.26315789473684   -0.05263157894737    0.00000000000000             1
    0.31578947368421   -0.05263157894737    0.00000000000000             1
    0.36842105263158   -0.05263157894737   -0.00000000000000             1
    0.42105263157895   -0.05263157894737    0.00000000000000             1
    0.47368421052632   -0.05263157894737    0.00000000000000             1
   -0.47368421052632   -0.05263157894737   -0.00000000000000             1
   -0.42105263157895   -0.05263157894737   -0.00000000000000             1
   -0.36842105263158   -0.05263157894737   -0.00000000000000             1
   -0.31578947368421   -0.05263157894737   -0.00000000000000             1
   -0.26315789473684   -0.05263157894737   -0.00000000000000             1
   -0.21052631578947   -0.05263157894737    0.00000000000000             1
   -0.15789473684210   -0.05263157894737   -0.00000000000000             1
   -0.10526315789474   -0.05263157894737   -0.00000000000000             1
   -0.05263157894737   -0.05263157894737    0.00000000000000             1
Tetrahedra
      2166    0.00046168051708
         1         2        20        20        21
         1         1         2        20        20
         1         1         1         2        20
         1         2        20        21        21
         1         2         2        20        21
         1         1         2         2        20
         1         3        21        21        22
         1         2         3        21        21
         1         2         2         3        21
         1         3        21        22        22
         1         3         3        21        22
         1         2         3         3        21
         1         4        22        22        23
         1         3         4        22        22
         1         3         3         4        22
         1         4        22        23        23
         1         4         4        22        23
         1         3         4         4        22
         1         5        23        23        24
         1         4         5        23        23
         1         4         4         5        23
         1         5        23        24        24
         1         5         5        23        24
         1         4         5         5        23
         1         6        24        24        25
         1         5         6        24        24
         1         5         5         6        24
         1         6        24        25        25
         1         6         6        24        25
         1         5         6         6        24
         1         7        25        25        26
         1         6         7        25        25
         1         6         6         7        25
         1         7        25        26        26
         1         7         7        25        26
         1         6         7         7        25
         1         8        26        26        27
         1         7         8        26        26
         1         7         7         8        26
         1         8        26        27        27
         1         8         8        26        27
         1         7         8         8        26
         1         9        27        27        28
         1         8         9        27        27
         1         8         8         9        27
         1         9        27        28        28
         1         9         9        27        28
         1         8         9         9        27
         1        10        28        28        29
         1         9        10        28        28
         1         9         9        10        28
         1        10        28        29        29
         1        10        10        28        29
         1         9        10        10        28
         1        11        29        29        30