       N       E                     dE             d eps       ncg     rms          rms(c)
DAV:   1     0.119407956445E+03    0.11941E+03   -0.83663E+03 52000   0.384E+02
DAV:   2    -0.553845584485E+01   -0.12495E+03   -0.11816E+03 57360   0.132E+02
DAV:   3    -0.157147707086E+02   -0.10176E+02   -0.99018E+01 57080   0.332E+01
DAV:   4    -0.160181407824E+02   -0.30337E+00   -0.30195E+00 59920   0.599E+00
DAV:   5    -0.160259549144E+02   -0.78141E-02   -0.77214E-02 69448   0.922E-01
DAV:   6    -0.160262361905E+02   -0.28128E-03   -0.28054E-03 66952   0.151E-01
DAV:   7    -0.160262408458E+02   -0.46553E-05   -0.46474E-05 63608   0.185E-02    0.441E-03
RMM:   8    -0.160262437980E+02   -0.29522E-05   -0.38137E-06 47702   0.784E-03    0.396E-03
RMM:   9    -0.160262408398E+02    0.29581E-05   -0.51132E-06 51665   0.866E-03    0.212E-03
RMM:  10    -0.160262394816E+02    0.13582E-05   -0.25345E-05 57043   0.181E-02    0.263E-03
RMM:  11    -0.160262389361E+02    0.54558E-06   -0.36596E-05 57732   0.205E-02    0.196E-03
RMM:  12    -0.160262387887E+02    0.14734E-06   -0.88789E-06 59458   0.103E-02    0.120E-03
RMM:  13    -0.160262395812E+02   -0.79242E-06   -0.67901E-06 59406   0.941E-03    0.724E-04
RMM:  14    -0.160262401416E+02   -0.56040E-06   -0.13534E-06 61949   0.421E-03    0.542E-04
RMM:  15    -0.160262391868E+02    0.95479E-06   -0.15774E-06 58787   0.499E-03    0.501E-04
RMM:  16    -0.160262386401E+02    0.54667E-06   -0.24695E-06 62956   0.612E-03    0.479E-04
RMM:  17    -0.160262384924E+02    0.14770E-06   -0.30029E-06 61924   0.648E-03    0.524E-04
RMM:  18    -0.160262384285E+02    0.63861E-07   -0.17776E-06 61694   0.499E-03    0.348E-04
RMM:  19    -0.160262384076E+02    0.20910E-07   -0.10345E-06 61052   0.378E-03    0.226E-04
RMM:  20    -0.160262387061E+02   -0.29852E-06   -0.10870E-06 59895   0.399E-03    0.287E-04
RMM:  21    -0.160262388763E+02   -0.17012E-06   -0.12271E-06 64151   0.424E-03    0.189E-04
RMM:  22    -0.160262389316E+02   -0.55344E-07   -0.95242E-07 64409   0.367E-03
   1 F= -.17039833E+02 E0= -.17039833E+02  d E =0.000000E+00  mag=     0.0000    -0.0000     2.8255
