 vasp.6.3.0 20Jan22 (build Jan 24 2022 13:23:39) complex                        
  
 executed on             LinuxIFC date 2024.01.23  19:34:39
 running on   64 total cores
 distrk:  each k-point on   64 cores,    1 groups
 distr:  one band on NCORE=   8 cores,    8 groups


--------------------------------------------------------------------------------------------------------


 INCAR:
   ENCUT = 330
   EDIFF = 1E-7
   LORBIT = 12
   LREAL = .False.
   ICHARG = 1
   NELM = 200
   NELMIN = 6
   NELMDL = -7
   PREC = Accurate
   ALGO = Fast
   NBANDS = 64
   NSW = 0
   IBRION = -1
   ISIF = 3
   EDIFFG = -0.001
   VOSKOWN = 1
   LASPH = True
   IVDW = 12
   ISMEAR = -5
   SIGMA = 0.05
   NEDOS = 2001
   ISPIN = 2
   MAGMOM = 0.0 0.0 5.0 -0.0 -0.0 -0.6 -0.0 -0.0 -0.6
   ISYM = -1
   LSORBIT = .TRUE.
   SAXIS = 0 0 1
   EFIELD = 0.00
   IDIPOL = 3
   LDIPOL = .TRUE.
   LVHAR = .TRUE.
   AMIX = 0.2
   BMIX = 0.00001
   AMIX_MAG = 0.8
   BMIX_MAG = 0.00001
   LDAU = .TRUE.
   LDAUTYPE = 2
   LDAUL = 2 -1 -1
   LDAUU = 3.0 0.00 0.00
   LDAUJ = 0.00 0.00 0.00
   LDAUPRINT = 2
   LMAXMIX = 4
   LWAVE = .FALSE.
   NCORE = 8

 POTCAR:    PAW_PBE Cr_pv 02Aug2007               
 POTCAR:    PAW_PBE S 06Sep2000                   
 POTCAR:    PAW_PBE Te 08Apr2002                  
 POTCAR:    PAW_PBE Cr_pv 02Aug2007               
   VRHFIN =Cr : p6d5s1                                                                              
   LEXCH  = PE                                                                                      
   EATOM  =  1647.9177 eV,  121.1185 Ry                                                             
                                                                                                    
   TITEL  = PAW_PBE Cr_pv 02Aug2007                                                                 
   LULTRA =        F    use ultrasoft PP ?                                                          
   IUNSCR =        1    unscreen: 0-lin 1-nonlin 2-no                                               
   RPACOR =    2.080    partial core radius                                                         
   POMASS =   51.996; ZVAL   =   12.000    mass and valenz                                          
   RCORE  =    2.300    outmost cutoff radius                                                       
   RWIGS  =    2.500; RWIGS  =    1.323    wigner-seitz radius (au A)                               
   ENMAX  =  265.681; ENMIN  =  199.261 eV                                                          
   ICORE  =        3    local potential                                                             
   LCOR   =        T    correct aug charges                                                         
   LPAW   =        T    paw PP                                                                      
   EAUG   =  519.424                                                                                
   DEXC   =    0.000                                                                                
   RMAX   =    2.356    core radius for proj-oper                                                   
   RAUG   =    1.300    factor for augmentation sphere                                              
   RDEP   =    2.447    radius for radial grids                                                     
   RDEPT  =    1.882    core radius for aug-charge                                                  
                                                                                                    
   Atomic configuration                                                                             
    8 entries                                                                                       
     n  l   j            E        occ.                                                              
     1  0  0.50     -5880.4963   2.0000                                                             
     2  0  0.50      -667.0865   2.0000                                                             
     2  1  1.50      -560.6250   6.0000                                                             
     3  0  0.50       -73.9860   2.0000                                                             
     3  1  1.50       -45.4378   6.0000                                                             
     3  2  2.50        -2.9137   5.0000                                                             
     4  0  0.50        -4.0071   1.0000                                                             
     4  3  2.50        -1.3606   0.0000                                                             
   Description                                                                                      
     l       E           TYP  RCUT    TYP  RCUT                                                     
     1    -45.4377911     23  2.000                                                                 
     1      1.3605826     23  2.000                                                                 
     2     -2.9136672     23  2.300                                                                 
     2     -4.2742498     23  2.300                                                                 
     0     -4.0071320     23  2.300                                                                 
     0      9.4498803     23  2.300                                                                 
     3      2.7211652     23  2.300                                                                 
  local pseudopotential read in
  partial core-charges read in
  partial kinetic energy density read in
  atomic valenz-charges read in
  non local Contribution for L=           1  read in
    real space projection operators read in
  non local Contribution for L=           1  read in
    real space projection operators read in
  non local Contribution for L=           2  read in
    real space projection operators read in
  non local Contribution for L=           2  read in
    real space projection operators read in
  non local Contribution for L=           0  read in
    real space projection operators read in
  non local Contribution for L=           0  read in
    real space projection operators read in
    PAW grid and wavefunctions read in
 
   number of l-projection  operators is LMAX  =           6
   number of lm-projection operators is LMMAX =          18
 
 POTCAR:    PAW_PBE S 06Sep2000                   
   VRHFIN =S : s2p4                                                                                 
   LEXCH  = PE                                                                                      
   EATOM  =   276.8230 eV,   20.3459 Ry                                                             
                                                                                                    
   TITEL  = PAW_PBE S 06Sep2000                                                                     
   LULTRA =        F    use ultrasoft PP ?                                                          
   IUNSCR =        1    unscreen: 0-lin 1-nonlin 2-no                                               
   RPACOR =    1.500    partial core radius                                                         
   POMASS =   32.066; ZVAL   =    6.000    mass and valenz                                          
   RCORE  =    1.900    outmost cutoff radius                                                       
   RWIGS  =    2.200; RWIGS  =    1.164    wigner-seitz radius (au A)                               
   ENMAX  =  258.689; ENMIN  =  194.016 eV                                                          
   ICORE  =        2    local potential                                                             
   LCOR   =        T    correct aug charges                                                         
   LPAW   =        T    paw PP                                                                      
   EAUG   =  335.092                                                                                
   DEXC   =    0.000                                                                                
   RMAX   =    1.942    core radius for proj-oper                                                   
   RAUG   =    1.300    factor for augmentation sphere                                              
   RDEP   =    1.954    radius for radial grids                                                     
   RDEPT  =    1.744    core radius for aug-charge                                                  
                                                                                                    
   Atomic configuration                                                                             
    6 entries                                                                                       
     n  l   j            E        occ.                                                              
     1  0  0.50     -2405.8406   2.0000                                                             
     2  0  0.50      -211.7007   2.0000                                                             
     2  1  1.50      -156.4958   6.0000                                                             
     3  0  0.50       -17.2562   2.0000                                                             
     3  1  0.50        -7.0085   4.0000                                                             
     3  2  1.50        -6.8029   0.0000                                                             
   Description                                                                                      
     l       E           TYP  RCUT    TYP  RCUT                                                     
     0    -17.2561641     23  1.900                                                                 
     0    -15.8743224     23  1.900                                                                 
     1     -7.0085400     23  1.900                                                                 
     1     -2.7779785     23  1.900                                                                 
     2     -6.8029130     23  1.900                                                                 
  local pseudopotential read in
  partial core-charges read in
  partial kinetic energy density read in
  atomic valenz-charges read in
  non local Contribution for L=           0  read in
    real space projection operators read in
  non local Contribution for L=           0  read in
    real space projection operators read in
  non local Contribution for L=           1  read in
    real space projection operators read in
  non local Contribution for L=           1  read in
    real space projection operators read in
    PAW grid and wavefunctions read in
 
   number of l-projection  operators is LMAX  =           4
   number of lm-projection operators is LMMAX =           8
 
 POTCAR:    PAW_PBE Te 08Apr2002                  
   VRHFIN =Te: s2p4                                                                                 
   LEXCH  = PE                                                                                      
   EATOM  =   223.2721 eV,   16.4100 Ry                                                             
                                                                                                    
   TITEL  = PAW_PBE Te 08Apr2002                                                                    
   LULTRA =        F    use ultrasoft PP ?                                                          
   IUNSCR =        1    unscreen: 0-lin 1-nonlin 2-no                                               
   RPACOR =    2.200    partial core radius                                                         
   POMASS =  127.600; ZVAL   =    6.000    mass and valenz                                          
   RCORE  =    2.300    outmost cutoff radius                                                       
   RWIGS  =    2.900; RWIGS  =    1.535    wigner-seitz radius (au A)                               
   ENMAX  =  174.982; ENMIN  =  131.236 eV                                                          
   ICORE  =        3    local potential                                                             
   LCOR   =        T    correct aug charges                                                         
   LPAW   =        T    paw PP                                                                      
   EAUG   =  368.792                                                                                
   DEXC   =    0.000                                                                                
   RMAX   =    2.345    core radius for proj-oper                                                   
   RAUG   =    1.300    factor for augmentation sphere                                              
   RDEP   =    2.397    radius for radial grids                                                     
   RDEPT  =    2.174    core radius for aug-charge                                                  
                                                                                                    
   Atomic configuration                                                                             
   13 entries                                                                                       
     n  l   j            E        occ.                                                              
     1  0  0.50    -31621.2075   2.0000                                                             
     2  0  0.50     -4848.7941   2.0000                                                             
     2  1  1.50     -4352.1960   6.0000                                                             
     3  0  0.50      -964.9612   2.0000                                                             
     3  1  1.50      -803.6179   6.0000                                                             
     3  2  2.50      -559.8710  10.0000                                                             
     4  0  0.50      -164.3522   2.0000                                                             
     4  1  1.50      -114.3756   6.0000                                                             
     4  2  2.50       -41.6483  10.0000                                                             
     5  0  0.50       -15.1072   2.0000                                                             
     5  1  0.50        -5.9526   4.0000                                                             
     5  2  1.50        -5.4423   0.0000                                                             
     4  3  2.50        -5.4423   0.0000                                                             
   Description                                                                                      
     l       E           TYP  RCUT    TYP  RCUT                                                     
     0    -15.1072389     23  2.300                                                                 
     0    -16.4678215     23  2.300                                                                 
     1     -5.9526306     23  2.300                                                                 
     1     -2.4873968     23  2.300                                                                 
     2     -5.4423304     23  2.300                                                                 
     3     -1.3605826     23  2.300                                                                 
  local pseudopotential read in
  partial core-charges read in
  partial kinetic energy density read in
  atomic valenz-charges read in
  non local Contribution for L=           0  read in
    real space projection operators read in
  non local Contribution for L=           0  read in
    real space projection operators read in
  non local Contribution for L=           1  read in
    real space projection operators read in
  non local Contribution for L=           1  read in
    real space projection operators read in
  non local Contribution for L=           2  read in
    real space projection operators read in
    PAW grid and wavefunctions read in
 
   number of l-projection  operators is LMAX  =           5
   number of lm-projection operators is LMMAX =          13
 
  PAW_PBE Cr_pv 02Aug2007               :
 energy of atom  1       EATOM=-1647.9177
 kinetic energy error for atom=    0.0585 (will be added to EATOM!!)
  PAW_PBE S 06Sep2000                   :
 energy of atom  2       EATOM= -276.8230
 kinetic energy error for atom=    0.0053 (will be added to EATOM!!)
  PAW_PBE Te 08Apr2002                  :
 energy of atom  3       EATOM= -223.2721
 kinetic energy error for atom=    0.0022 (will be added to EATOM!!)
 
 
 POSCAR: Cr S Te
  positions in direct lattice
  velocities in cartesian coordinates
 exchange correlation table for  LEXCH =        8
   RHO(1)=    0.500       N(1)  =     2000
   RHO(2)=  100.500       N(2)  =     4000
 


--------------------------------------------------------------------------------------------------------


 ion  position               nearest neighbor table
   1  0.000  0.000  0.109-   2 2.34   2 2.34   2 2.34   3 2.84   3 2.84   3 2.84
   2  0.667  0.333  0.069-   1 2.34   1 2.34   1 2.34
   3  0.333  0.667  0.175-   1 2.84   1 2.84   1 2.84
 

IMPORTANT INFORMATION: All symmetrisations will be switched off!
NOSYMM: (Re-)initialisation of all symmetry stuff for point group C_1.


----------------------------------------------------------------------------------------

                                     Primitive cell                                     

  volume of cell :     316.1269

  direct lattice vectors                    reciprocal lattice vectors
     3.427808124  0.000000218  0.000000000     0.291731604  0.168431348  0.000000000
    -1.713904293  2.968568820  0.000000000    -0.000000021  0.336862651 -0.000000000
    -0.000000000  0.000000000 31.066888743     0.000000000  0.000000000  0.032188611

  length of vectors
     3.427808124  3.427808158 31.066888743     0.336862655  0.336862651  0.032188611

  position of ions in fractional coordinates (direct lattice)
     0.000000000  0.000000000  0.109235567
     0.666667000  0.333333000  0.069107151
     0.333334175  0.666667000  0.174792033

  ion indices of the primitive-cell ions
   primitive index   ion index
                 1           1
                 2           2
                 3           3

----------------------------------------------------------------------------------------

 
 
 KPOINTS: pymatgen with grid density = 603 / numbe

Automatic generation of k-mesh.
 Grid dimensions read from file:
 generate k-points for:   19   19    1

 Generating k-lattice:

  Cartesian coordinates                     Fractional coordinates (reciprocal lattice)
     0.015354295  0.008864808  0.000000000     0.052631579  0.000000000 -0.000000000
    -0.000000001  0.017729613 -0.000000000    -0.000000000  0.052631579  0.000000000
     0.000000000  0.000000000  0.032188611     0.000000000  0.000000000  1.000000000

  Length of vectors
     0.017729613  0.017729613  0.032188611

  Shift w.r.t. Gamma in fractional coordinates (k-lattice)
     0.000000000  0.000000000  0.000000000

 TETIRR: Found   2166 inequivalent tetrahedra from     2166
 
 Subroutine IBZKPT returns following result:
 ===========================================
 
 Found    361 irreducible k-points:
 
 Following reciprocal coordinates:
            Coordinates               Weight
  0.000000  0.000000  0.000000      1.000000
  0.052632 -0.000000  0.000000      1.000000
  0.105263 -0.000000  0.000000      1.000000
  0.157895 -0.000000  0.000000      1.000000
  0.210526 -0.000000  0.000000      1.000000
  0.263158 -0.000000  0.000000      1.000000
  0.315789  0.000000  0.000000      1.000000
  0.368421  0.000000  0.000000      1.000000
  0.421053 -0.000000  0.000000      1.000000
  0.473684  0.000000  0.000000      1.000000
 -0.473684 -0.000000 -0.000000      1.000000
 -0.421053  0.000000  0.000000      1.000000
 -0.368421  0.000000 -0.000000      1.000000
 -0.315789 -0.000000 -0.000000      1.000000
 -0.263158  0.000000 -0.000000      1.000000
 -0.210526  0.000000  0.000000      1.000000
 -0.157895  0.000000 -0.000000      1.000000
 -0.105263  0.000000 -0.000000      1.000000
 -0.052632  0.000000 -0.000000      1.000000
  0.000000  0.052632  0.000000      1.000000
  0.052632  0.052632 -0.000000      1.000000
  0.105263  0.052632  0.000000      1.000000
  0.157895  0.052632  0.000000      1.000000
  0.210526  0.052632 -0.000000      1.000000
  0.263158  0.052632  0.000000      1.000000
  0.315789  0.052632  0.000000      1.000000
  0.368421  0.052632 -0.000000      1.000000
  0.421053  0.052632  0.000000      1.000000
  0.473684  0.052632  0.000000      1.000000
 -0.473684  0.052632 -0.000000      1.000000
 -0.421053  0.052632 -0.000000      1.000000
 -0.368421  0.052632  0.000000      1.000000
 -0.315789  0.052632 -0.000000      1.000000
 -0.263158  0.052632 -0.000000      1.000000
 -0.210526  0.052632  0.000000      1.000000
 -0.157895  0.052632 -0.000000      1.000000
 -0.105263  0.052632 -0.000000      1.000000
 -0.052632  0.052632 -0.000000      1.000000
  0.000000  0.105263  0.000000      1.000000
  0.052632  0.105263  0.000000      1.000000
  0.105263  0.105263 -0.000000      1.000000
  0.157895  0.105263  0.000000      1.000000
  0.210526  0.105263  0.000000      1.000000
  0.263158  0.105263  0.000000      1.000000
  0.315789  0.105263  0.000000      1.000000
  0.368421  0.105263 -0.000000      1.000000
  0.421053  0.105263 -0.000000      1.000000
  0.473684  0.105263  0.000000      1.000000
 -0.473684  0.105263  0.000000      1.000000
 -0.421053  0.105263  0.000000      1.000000
 -0.368421  0.105263 -0.000000      1.000000
 -0.315789  0.105263 -0.000000      1.000000
 -0.263158  0.105263 -0.000000      1.000000
 -0.210526  0.105263  0.000000      1.000000
 -0.157895  0.105263 -0.000000      1.000000
 -0.105263  0.105263 -0.000000      1.000000
 -0.052632  0.105263  0.000000      1.000000
 -0.000000  0.157895  0.000000      1.000000
  0.052632  0.157895 -0.000000      1.000000
  0.105263  0.157895  0.000000      1.000000
  0.157895  0.157895  0.000000      1.000000
  0.210526  0.157895  0.000000      1.000000
  0.263158  0.157895  0.000000      1.000000
  0.315789  0.157895  0.000000      1.000000
  0.368421  0.157895  0.000000      1.000000
  0.421053  0.157895 -0.000000      1.000000
  0.473684  0.157895  0.000000      1.000000
 -0.473684  0.157895 -0.000000      1.000000
 -0.421053  0.157895 -0.000000      1.000000
 -0.368421  0.157895  0.000000      1.000000
 -0.315789  0.157895 -0.000000      1.000000
 -0.263158  0.157895 -0.000000      1.000000
 -0.210526  0.157895  0.000000      1.000000
 -0.157895  0.157895  0.000000      1.000000
 -0.105263  0.157895 -0.000000      1.000000
 -0.052632  0.157895  0.000000      1.000000
 -0.000000  0.210526  0.000000      1.000000
  0.052632  0.210526  0.000000      1.000000
  0.105263  0.210526  0.000000      1.000000
  0.157895  0.210526  0.000000      1.000000
  0.210526  0.210526  0.000000      1.000000
  0.263158  0.210526  0.000000      1.000000
  0.315789  0.210526  0.000000      1.000000
  0.368421  0.210526  0.000000      1.000000
  0.421053  0.210526  0.000000      1.000000
  0.473684  0.210526 -0.000000      1.000000
 -0.473684  0.210526 -0.000000      1.000000
 -0.421053  0.210526  0.000000      1.000000
 -0.368421  0.210526 -0.000000      1.000000
 -0.315789  0.210526 -0.000000      1.000000
 -0.263158  0.210526  0.000000      1.000000
 -0.210526  0.210526 -0.000000      1.000000
 -0.157895  0.210526 -0.000000      1.000000
 -0.105263  0.210526 -0.000000      1.000000
 -0.052632  0.210526 -0.000000      1.000000
 -0.000000  0.263158 -0.000000      1.000000
  0.052632  0.263158  0.000000      1.000000
  0.105263  0.263158  0.000000      1.000000
  0.157895  0.263158  0.000000      1.000000
  0.210526  0.263158  0.000000      1.000000
  0.263158  0.263158  0.000000      1.000000
  0.315789  0.263158  0.000000      1.000000
  0.368421  0.263158  0.000000      1.000000
  0.421053  0.263158  0.000000      1.000000
  0.473684  0.263158  0.000000      1.000000
 -0.473684  0.263158  0.000000      1.000000
 -0.421053  0.263158  0.000000      1.000000
 -0.368421  0.263158  0.000000      1.000000
 -0.315789  0.263158 -0.000000      1.000000
 -0.263158  0.263158  0.000000      1.000000
 -0.210526  0.263158  0.000000      1.000000
 -0.157895  0.263158 -0.000000      1.000000
 -0.105263  0.263158 -0.000000      1.000000
 -0.052632  0.263158 -0.000000      1.000000
 -0.000000  0.315789  0.000000      1.000000
  0.052632  0.315789  0.000000      1.000000
  0.105263  0.315789 -0.000000      1.000000
  0.157895  0.315789  0.000000      1.000000
  0.210526  0.315789  0.000000      1.000000
  0.263158  0.315789  0.000000      1.000000
  0.315789  0.315789  0.000000      1.000000
  0.368421  0.315789  0.000000      1.000000
  0.421053  0.315789  0.000000      1.000000
  0.473684  0.315789  0.000000      1.000000
 -0.473684  0.315789  0.000000      1.000000
 -0.421053  0.315789  0.000000      1.000000
 -0.368421  0.315789 -0.000000      1.000000
 -0.315789  0.315789  0.000000      1.000000
 -0.263158  0.315789  0.000000      1.000000
 -0.210526  0.315789  0.000000      1.000000
 -0.157895  0.315789 -0.000000      1.000000
 -0.105263  0.315789 -0.000000      1.000000
 -0.052632  0.315789  0.000000      1.000000
 -0.000000  0.368421  0.000000      1.000000
  0.052632  0.368421 -0.000000      1.000000
  0.105263  0.368421 -0.000000      1.000000
  0.157895  0.368421  0.000000      1.000000
  0.210526  0.368421  0.000000      1.000000
  0.263158  0.368421  0.000000      1.000000
  0.315789  0.368421  0.000000      1.000000
  0.368421  0.368421  0.000000      1.000000
  0.421053  0.368421 -0.000000      1.000000
  0.473684  0.368421  0.000000      1.000000
 -0.473684  0.368421 -0.000000      1.000000
 -0.421053  0.368421  0.000000      1.000000
 -0.368421  0.368421 -0.000000      1.000000
 -0.315789  0.368421 -0.000000      1.000000
 -0.263158  0.368421  0.000000      1.000000
 -0.210526  0.368421  0.000000      1.000000
 -0.157895  0.368421  0.000000      1.000000
 -0.105263  0.368421  0.000000      1.000000
 -0.052632  0.368421  0.000000      1.000000
 -0.000000  0.421053  0.000000      1.000000
  0.052632  0.421053 -0.000000      1.000000
  0.105263  0.421053  0.000000      1.000000
  0.157895  0.421053 -0.000000      1.000000
  0.210526  0.421053  0.000000      1.000000
  0.263158  0.421053  0.000000      1.000000
  0.315789  0.421053  0.000000      1.000000
  0.368421  0.421053  0.000000      1.000000
  0.421053  0.421053  0.000000      1.000000
  0.473684  0.421053  0.000000      1.000000
 -0.473684  0.421053  0.000000      1.000000
 -0.421053  0.421053 -0.000000      1.000000
 -0.368421  0.421053 -0.000000      1.000000
 -0.315789  0.421053 -0.000000      1.000000
 -0.263158  0.421053 -0.000000      1.000000
 -0.210526  0.421053  0.000000      1.000000
 -0.157895  0.421053 -0.000000      1.000000
 -0.105263  0.421053 -0.000000      1.000000
 -0.052632  0.421053 -0.000000      1.000000
 -0.000000  0.473684  0.000000      1.000000
  0.052632  0.473684 -0.000000      1.000000
  0.105263  0.473684 -0.000000      1.000000
  0.157895  0.473684  0.000000      1.000000
  0.210526  0.473684  0.000000      1.000000
  0.263158  0.473684  0.000000      1.000000
  0.315789  0.473684  0.000000      1.000000
  0.368421  0.473684 -0.000000      1.000000
  0.421053  0.473684  0.000000      1.000000
  0.473684  0.473684  0.000000      1.000000
 -0.473684  0.473684 -0.000000      1.000000
 -0.421053  0.473684 -0.000000      1.000000
 -0.368421  0.473684 -0.000000      1.000000
 -0.315789  0.473684 -0.000000      1.000000
 -0.263158  0.473684 -0.000000      1.000000
 -0.210526  0.473684  0.000000      1.000000
 -0.157895  0.473684  0.000000      1.000000
 -0.105263  0.473684 -0.000000      1.000000
 -0.052632  0.473684 -0.000000      1.000000
  0.000000 -0.473684 -0.000000      1.000000
  0.052632 -0.473684  0.000000      1.000000
  0.105263 -0.473684  0.000000      1.000000
  0.157895 -0.473684 -0.000000      1.000000
  0.210526 -0.473684  0.000000      1.000000
  0.263158 -0.473684  0.000000      1.000000
  0.315789 -0.473684  0.000000      1.000000
  0.368421 -0.473684  0.000000      1.000000
  0.421053 -0.473684  0.000000      1.000000
  0.473684 -0.473684  0.000000      1.000000
 -0.473684 -0.473684 -0.000000      1.000000
 -0.421053 -0.473684 -0.000000      1.000000
 -0.368421 -0.473684  0.000000      1.000000
 -0.315789 -0.473684 -0.000000      1.000000
 -0.263158 -0.473684  0.000000      1.000000
 -0.210526 -0.473684 -0.000000      1.000000
 -0.157895 -0.473684 -0.000000      1.000000
 -0.105263 -0.473684  0.000000      1.000000
 -0.052632 -0.473684  0.000000      1.000000
  0.000000 -0.421053  0.000000      1.000000
  0.052632 -0.421053  0.000000      1.000000
  0.105263 -0.421053  0.000000      1.000000
  0.157895 -0.421053  0.000000      1.000000
  0.210526 -0.421053  0.000000      1.000000
  0.263158 -0.421053  0.000000      1.000000
  0.315789 -0.421053  0.000000      1.000000
  0.368421 -0.421053 -0.000000      1.000000
  0.421053 -0.421053  0.000000      1.000000
  0.473684 -0.421053  0.000000      1.000000
 -0.473684 -0.421053 -0.000000      1.000000
 -0.421053 -0.421053 -0.000000      1.000000
 -0.368421 -0.421053 -0.000000      1.000000
 -0.315789 -0.421053 -0.000000      1.000000
 -0.263158 -0.421053 -0.000000      1.000000
 -0.210526 -0.421053 -0.000000      1.000000
 -0.157895 -0.421053  0.000000      1.000000
 -0.105263 -0.421053  0.000000      1.000000
 -0.052632 -0.421053  0.000000      1.000000
  0.000000 -0.368421  0.000000      1.000000
  0.052632 -0.368421  0.000000      1.000000
  0.105263 -0.368421  0.000000      1.000000
  0.157895 -0.368421  0.000000      1.000000
  0.210526 -0.368421  0.000000      1.000000
  0.263158 -0.368421  0.000000      1.000000
  0.315789 -0.368421  0.000000      1.000000
  0.368421 -0.368421  0.000000      1.000000
  0.421053 -0.368421  0.000000      1.000000
  0.473684 -0.368421  0.000000      1.000000
 -0.473684 -0.368421 -0.000000      1.000000
 -0.421053 -0.368421  0.000000      1.000000
 -0.368421 -0.368421 -0.000000      1.000000
 -0.315789 -0.368421 -0.000000      1.000000
 -0.263158 -0.368421 -0.000000      1.000000
 -0.210526 -0.368421  0.000000      1.000000
 -0.157895 -0.368421 -0.000000      1.000000
 -0.105263 -0.368421  0.000000      1.000000
 -0.052632 -0.368421  0.000000      1.000000
  0.000000 -0.315789  0.000000      1.000000
  0.052632 -0.315789  0.000000      1.000000
  0.105263 -0.315789  0.000000      1.000000
  0.157895 -0.315789  0.000000      1.000000
  0.210526 -0.315789  0.000000      1.000000
  0.263158 -0.315789  0.000000      1.000000
  0.315789 -0.315789 -0.000000      1.000000
  0.368421 -0.315789 -0.000000      1.000000
  0.421053 -0.315789 -0.000000      1.000000
  0.473684 -0.315789  0.000000      1.000000
 -0.473684 -0.315789  0.000000      1.000000
 -0.421053 -0.315789 -0.000000      1.000000
 -0.368421 -0.315789 -0.000000      1.000000
 -0.315789 -0.315789 -0.000000      1.000000
 -0.263158 -0.315789 -0.000000      1.000000
 -0.210526 -0.315789 -0.000000      1.000000
 -0.157895 -0.315789 -0.000000      1.000000
 -0.105263 -0.315789  0.000000      1.000000
 -0.052632 -0.315789  0.000000      1.000000
  0.000000 -0.263158  0.000000      1.000000
  0.052632 -0.263158  0.000000      1.000000
  0.105263 -0.263158  0.000000      1.000000
  0.157895 -0.263158  0.000000      1.000000
  0.210526 -0.263158  0.000000      1.000000
  0.263158 -0.263158  0.000000      1.000000
  0.315789 -0.263158  0.000000      1.000000
  0.368421 -0.263158  0.000000      1.000000
  0.421053 -0.263158 -0.000000      1.000000
  0.473684 -0.263158 -0.000000      1.000000
 -0.473684 -0.263158  0.000000      1.000000
 -0.421053 -0.263158 -0.000000      1.000000
 -0.368421 -0.263158  0.000000      1.000000
 -0.315789 -0.263158 -0.000000      1.000000
 -0.263158 -0.263158  0.000000      1.000000
 -0.210526 -0.263158  0.000000      1.000000
 -0.157895 -0.263158 -0.000000      1.000000
 -0.105263 -0.263158  0.000000      1.000000
 -0.052632 -0.263158  0.000000      1.000000
  0.000000 -0.210526  0.000000      1.000000
  0.052632 -0.210526  0.000000      1.000000
  0.105263 -0.210526  0.000000      1.000000
  0.157895 -0.210526  0.000000      1.000000
  0.210526 -0.210526  0.000000      1.000000
  0.263158 -0.210526  0.000000      1.000000
  0.315789 -0.210526  0.000000      1.000000
  0.368421 -0.210526  0.000000      1.000000
  0.421053 -0.210526  0.000000      1.000000
  0.473684 -0.210526  0.000000      1.000000
 -0.473684 -0.210526  0.000000      1.000000
 -0.421053 -0.210526 -0.000000      1.000000
 -0.368421 -0.210526  0.000000      1.000000
 -0.315789 -0.210526 -0.000000      1.000000
 -0.263158 -0.210526 -0.000000      1.000000
 -0.210526 -0.210526 -0.000000      1.000000
 -0.157895 -0.210526 -0.000000      1.000000
 -0.105263 -0.210526  0.000000      1.000000
 -0.052632 -0.210526  0.000000      1.000000
  0.000000 -0.157895 -0.000000      1.000000
  0.052632 -0.157895  0.000000      1.000000
  0.105263 -0.157895  0.000000      1.000000
  0.157895 -0.157895  0.000000      1.000000
  0.210526 -0.157895 -0.000000      1.000000
  0.263158 -0.157895  0.000000      1.000000
  0.315789 -0.157895  0.000000      1.000000
  0.368421 -0.157895  0.000000      1.000000
  0.421053 -0.157895  0.000000      1.000000
  0.473684 -0.157895  0.000000      1.000000
 -0.473684 -0.157895  0.000000      1.000000
 -0.421053 -0.157895  0.000000      1.000000
 -0.368421 -0.157895 -0.000000      1.000000
 -0.315789 -0.157895 -0.000000      1.000000
 -0.263158 -0.157895  0.000000      1.000000
 -0.210526 -0.157895 -0.000000      1.000000
 -0.157895 -0.157895 -0.000000      1.000000
 -0.105263 -0.157895  0.000000      1.000000
 -0.052632 -0.157895  0.000000      1.000000
  0.000000 -0.105263 -0.000000      1.000000
  0.052632 -0.105263  0.000000      1.000000
  0.105263 -0.105263  0.000000      1.000000
  0.157895 -0.105263  0.000000      1.000000
  0.210526 -0.105263  0.000000      1.000000
  0.263158 -0.105263  0.000000      1.000000
  0.315789 -0.105263  0.000000      1.000000
  0.368421 -0.105263  0.000000      1.000000
  0.421053 -0.105263  0.000000      1.000000
  0.473684 -0.105263  0.000000      1.000000
 -0.473684 -0.105263 -0.000000      1.000000
 -0.421053 -0.105263  0.000000      1.000000
 -0.368421 -0.105263 -0.000000      1.000000
 -0.315789 -0.105263 -0.000000      1.000000
 -0.263158 -0.105263  0.000000      1.000000
 -0.210526 -0.105263  0.000000      1.000000
 -0.157895 -0.105263 -0.000000      1.000000
 -0.105263 -0.105263  0.000000      1.000000
 -0.052632 -0.105263 -0.000000      1.000000
  0.000000 -0.052632 -0.000000      1.000000
  0.052632 -0.052632  0.000000      1.000000
  0.105263 -0.052632  0.000000      1.000000
  0.157895 -0.052632  0.000000      1.000000
  0.210526 -0.052632  0.000000      1.000000
  0.263158 -0.052632  0.000000      1.000000
  0.315789 -0.052632  0.000000      1.000000
  0.368421 -0.052632 -0.000000      1.000000
  0.421053 -0.052632  0.000000      1.000000
  0.473684 -0.052632  0.000000      1.000000
 -0.473684 -0.052632 -0.000000      1.000000
 -0.421053 -0.052632 -0.000000      1.000000
 -0.368421 -0.052632 -0.000000      1.000000
 -0.315789 -0.052632 -0.000000      1.000000
 -0.263158 -0.052632 -0.000000      1.000000
 -0.210526 -0.052632  0.000000      1.000000
 -0.157895 -0.052632 -0.000000      1.000000
 -0.105263 -0.052632 -0.000000      1.000000
 -0.052632 -0.052632  0.000000      1.000000
 
 Following cartesian coordinates:
            Coordinates               Weight
  0.000000  0.000000  0.000000      1.000000
  0.015354  0.008865  0.000000      1.000000
  0.030709  0.017730  0.000000      1.000000
  0.046063  0.026594  0.000000      1.000000
  0.061417  0.035459  0.000000      1.000000
  0.076771  0.044324  0.000000      1.000000
  0.092126  0.053189  0.000000      1.000000
  0.107480  0.062054  0.000000      1.000000
  0.122834  0.070918  0.000000      1.000000
  0.138189  0.079783  0.000000      1.000000
 -0.138189 -0.079783 -0.000000      1.000000
 -0.122834 -0.070918 -0.000000      1.000000
 -0.107480 -0.062054 -0.000000      1.000000
 -0.092126 -0.053189 -0.000000      1.000000
 -0.076771 -0.044324 -0.000000      1.000000
 -0.061417 -0.035459 -0.000000      1.000000
 -0.046063 -0.026594 -0.000000      1.000000
 -0.030709 -0.017730 -0.000000      1.000000
 -0.015354 -0.008865 -0.000000      1.000000
 -0.000000  0.017730 -0.000000      1.000000
  0.015354  0.026594  0.000000      1.000000
  0.030709  0.035459  0.000000      1.000000
  0.046063  0.044324  0.000000      1.000000
  0.061417  0.053189  0.000000      1.000000
  0.076771  0.062054  0.000000      1.000000
  0.092126  0.070918  0.000000      1.000000
  0.107480  0.079783  0.000000      1.000000
  0.122834  0.088648  0.000000      1.000000
  0.138189  0.097513  0.000000      1.000000
 -0.138189 -0.062054 -0.000000      1.000000
 -0.122834 -0.053189 -0.000000      1.000000
 -0.107480 -0.044324 -0.000000      1.000000
 -0.092126 -0.035459 -0.000000      1.000000
 -0.076771 -0.026594 -0.000000      1.000000
 -0.061417 -0.017730 -0.000000      1.000000
 -0.046063 -0.008865 -0.000000      1.000000
 -0.030709 -0.000000 -0.000000      1.000000
 -0.015354  0.008865 -0.000000      1.000000
 -0.000000  0.035459 -0.000000      1.000000
  0.015354  0.044324  0.000000      1.000000
  0.030709  0.053189  0.000000      1.000000
  0.046063  0.062054  0.000000      1.000000
  0.061417  0.070918  0.000000      1.000000
  0.076771  0.079783  0.000000      1.000000
  0.092126  0.088648  0.000000      1.000000
  0.107480  0.097513  0.000000      1.000000
  0.122834  0.106378  0.000000      1.000000
  0.138189  0.115242  0.000000      1.000000
 -0.138189 -0.044324 -0.000000      1.000000
 -0.122834 -0.035459 -0.000000      1.000000
 -0.107480 -0.026594 -0.000000      1.000000
 -0.092126 -0.017730 -0.000000      1.000000
 -0.076771 -0.008865 -0.000000      1.000000
 -0.061417 -0.000000 -0.000000      1.000000
 -0.046063  0.008865 -0.000000      1.000000
 -0.030709  0.017730 -0.000000      1.000000
 -0.015354  0.026594 -0.000000      1.000000
 -0.000000  0.053189 -0.000000      1.000000
  0.015354  0.062054  0.000000      1.000000
  0.030709  0.070918  0.000000      1.000000
  0.046063  0.079783  0.000000      1.000000
  0.061417  0.088648  0.000000      1.000000
  0.076771  0.097513  0.000000      1.000000
  0.092126  0.106378  0.000000      1.000000
  0.107480  0.115242  0.000000      1.000000
  0.122834  0.124107  0.000000      1.000000
  0.138189  0.132972  0.000000      1.000000
 -0.138189 -0.026594 -0.000000      1.000000
 -0.122834 -0.017730 -0.000000      1.000000
 -0.107480 -0.008865 -0.000000      1.000000
 -0.092126 -0.000000 -0.000000      1.000000
 -0.076771  0.008865 -0.000000      1.000000
 -0.061417  0.017730 -0.000000      1.000000
 -0.046063  0.026594 -0.000000      1.000000
 -0.030709  0.035459 -0.000000      1.000000
 -0.015354  0.044324 -0.000000      1.000000
 -0.000000  0.070918 -0.000000      1.000000
  0.015354  0.079783  0.000000      1.000000
  0.030709  0.088648  0.000000      1.000000
  0.046063  0.097513  0.000000      1.000000
  0.061417  0.106378  0.000000      1.000000
  0.076771  0.115242  0.000000      1.000000
  0.092126  0.124107  0.000000      1.000000
  0.107480  0.132972  0.000000      1.000000
  0.122834  0.141837  0.000000      1.000000
  0.138189  0.150702  0.000000      1.000000
 -0.138189 -0.008865 -0.000000      1.000000
 -0.122834 -0.000000 -0.000000      1.000000
 -0.107480  0.008865 -0.000000      1.000000
 -0.092126  0.017730 -0.000000      1.000000
 -0.076771  0.026594 -0.000000      1.000000
 -0.061417  0.035459 -0.000000      1.000000
 -0.046063  0.044324 -0.000000      1.000000
 -0.030709  0.053189 -0.000000      1.000000
 -0.015354  0.062054 -0.000000      1.000000
 -0.000000  0.088648 -0.000000      1.000000
  0.015354  0.097513  0.000000      1.000000
  0.030709  0.106378  0.000000      1.000000
  0.046063  0.115242  0.000000      1.000000
  0.061417  0.124107  0.000000      1.000000
  0.076771  0.132972  0.000000      1.000000
  0.092126  0.141837  0.000000      1.000000
  0.107480  0.150702  0.000000      1.000000
  0.122834  0.159567  0.000000      1.000000
  0.138189  0.168431  0.000000      1.000000
 -0.138189  0.008865 -0.000000      1.000000
 -0.122834  0.017730 -0.000000      1.000000
 -0.107480  0.026594 -0.000000      1.000000
 -0.092126  0.035459 -0.000000      1.000000
 -0.076771  0.044324 -0.000000      1.000000
 -0.061417  0.053189 -0.000000      1.000000
 -0.046063  0.062054 -0.000000      1.000000
 -0.030709  0.070918 -0.000000      1.000000
 -0.015354  0.079783 -0.000000      1.000000
 -0.000000  0.106378 -0.000000      1.000000
  0.015354  0.115242  0.000000      1.000000
  0.030709  0.124107  0.000000      1.000000
  0.046063  0.132972  0.000000      1.000000
  0.061417  0.141837  0.000000      1.000000
  0.076771  0.150702  0.000000      1.000000
  0.092126  0.159567  0.000000      1.000000
  0.107480  0.168431  0.000000      1.000000
  0.122834  0.177296  0.000000      1.000000
  0.138189  0.186161  0.000000      1.000000
 -0.138189  0.026594 -0.000000      1.000000
 -0.122834  0.035459 -0.000000      1.000000
 -0.107480  0.044324 -0.000000      1.000000
 -0.092126  0.053189 -0.000000      1.000000
 -0.076771  0.062054 -0.000000      1.000000
 -0.061417  0.070918 -0.000000      1.000000
 -0.046063  0.079783 -0.000000      1.000000
 -0.030709  0.088648 -0.000000      1.000000
 -0.015354  0.097513 -0.000000      1.000000
 -0.000000  0.124107 -0.000000      1.000000
  0.015354  0.132972  0.000000      1.000000
  0.030709  0.141837  0.000000      1.000000
  0.046063  0.150702  0.000000      1.000000
  0.061417  0.159567  0.000000      1.000000
  0.076771  0.168431  0.000000      1.000000
  0.092126  0.177296  0.000000      1.000000
  0.107480  0.186161  0.000000      1.000000
  0.122834  0.195026  0.000000      1.000000
  0.138189  0.203891  0.000000      1.000000
 -0.138189  0.044324 -0.000000      1.000000
 -0.122834  0.053189 -0.000000      1.000000
 -0.107480  0.062054 -0.000000      1.000000
 -0.092126  0.070918 -0.000000      1.000000
 -0.076771  0.079783 -0.000000      1.000000
 -0.061417  0.088648 -0.000000      1.000000
 -0.046063  0.097513 -0.000000      1.000000
 -0.030709  0.106378 -0.000000      1.000000
 -0.015354  0.115242 -0.000000      1.000000
 -0.000000  0.141837 -0.000000      1.000000
  0.015354  0.150702  0.000000      1.000000
  0.030709  0.159567  0.000000      1.000000
  0.046063  0.168431  0.000000      1.000000
  0.061417  0.177296  0.000000      1.000000
  0.076771  0.186161  0.000000      1.000000
  0.092126  0.195026  0.000000      1.000000
  0.107480  0.203891  0.000000      1.000000
  0.122834  0.212755  0.000000      1.000000
  0.138189  0.221620  0.000000      1.000000
 -0.138189  0.062054 -0.000000      1.000000
 -0.122834  0.070918 -0.000000      1.000000
 -0.107480  0.079783 -0.000000      1.000000
 -0.092126  0.088648 -0.000000      1.000000
 -0.076771  0.097513 -0.000000      1.000000
 -0.061417  0.106378 -0.000000      1.000000
 -0.046063  0.115242 -0.000000      1.000000
 -0.030709  0.124107 -0.000000      1.000000
 -0.015354  0.132972 -0.000000      1.000000
 -0.000000  0.159567 -0.000000      1.000000
  0.015354  0.168431  0.000000      1.000000
  0.030709  0.177296  0.000000      1.000000
  0.046063  0.186161  0.000000      1.000000
  0.061417  0.195026  0.000000      1.000000
  0.076771  0.203891  0.000000      1.000000
  0.092126  0.212755  0.000000      1.000000
  0.107480  0.221620  0.000000      1.000000
  0.122834  0.230485  0.000000      1.000000
  0.138189  0.239350  0.000000      1.000000
 -0.138189  0.079783 -0.000000      1.000000
 -0.122834  0.088648 -0.000000      1.000000
 -0.107480  0.097513 -0.000000      1.000000
 -0.092126  0.106378 -0.000000      1.000000
 -0.076771  0.115242 -0.000000      1.000000
 -0.061417  0.124107 -0.000000      1.000000
 -0.046063  0.132972 -0.000000      1.000000
 -0.030709  0.141837 -0.000000      1.000000
 -0.015354  0.150702 -0.000000      1.000000
  0.000000 -0.159567  0.000000      1.000000
  0.015354 -0.150702  0.000000      1.000000
  0.030709 -0.141837  0.000000      1.000000
  0.046063 -0.132972  0.000000      1.000000
  0.061417 -0.124107  0.000000      1.000000
  0.076771 -0.115242  0.000000      1.000000
  0.092126 -0.106378  0.000000      1.000000
  0.107480 -0.097513  0.000000      1.000000
  0.122834 -0.088648  0.000000      1.000000
  0.138189 -0.079783  0.000000      1.000000
 -0.138189 -0.239350 -0.000000      1.000000
 -0.122834 -0.230485 -0.000000      1.000000
 -0.107480 -0.221620 -0.000000      1.000000
 -0.092126 -0.212755 -0.000000      1.000000
 -0.076771 -0.203891 -0.000000      1.000000
 -0.061417 -0.195026 -0.000000      1.000000
 -0.046063 -0.186161 -0.000000      1.000000
 -0.030709 -0.177296 -0.000000      1.000000
 -0.015354 -0.168431 -0.000000      1.000000
  0.000000 -0.141837  0.000000      1.000000
  0.015354 -0.132972  0.000000      1.000000
  0.030709 -0.124107  0.000000      1.000000
  0.046063 -0.115242  0.000000      1.000000
  0.061417 -0.106378  0.000000      1.000000
  0.076771 -0.097513  0.000000      1.000000
  0.092126 -0.088648  0.000000      1.000000
  0.107480 -0.079783  0.000000      1.000000
  0.122834 -0.070918  0.000000      1.000000
  0.138189 -0.062054  0.000000      1.000000
 -0.138189 -0.221620 -0.000000      1.000000
 -0.122834 -0.212755 -0.000000      1.000000
 -0.107480 -0.203891 -0.000000      1.000000
 -0.092126 -0.195026 -0.000000      1.000000
 -0.076771 -0.186161 -0.000000      1.000000
 -0.061417 -0.177296 -0.000000      1.000000
 -0.046063 -0.168431 -0.000000      1.000000
 -0.030709 -0.159567 -0.000000      1.000000
 -0.015354 -0.150702 -0.000000      1.000000
  0.000000 -0.124107  0.000000      1.000000
  0.015354 -0.115242  0.000000      1.000000
  0.030709 -0.106378  0.000000      1.000000
  0.046063 -0.097513  0.000000      1.000000
  0.061417 -0.088648  0.000000      1.000000
  0.076771 -0.079783  0.000000      1.000000
  0.092126 -0.070918  0.000000      1.000000
  0.107480 -0.062054  0.000000      1.000000
  0.122834 -0.053189  0.000000      1.000000
  0.138189 -0.044324  0.000000      1.000000
 -0.138189 -0.203891 -0.000000      1.000000
 -0.122834 -0.195026 -0.000000      1.000000
 -0.107480 -0.186161 -0.000000      1.000000
 -0.092126 -0.177296 -0.000000      1.000000
 -0.076771 -0.168431 -0.000000      1.000000
 -0.061417 -0.159567 -0.000000      1.000000
 -0.046063 -0.150702 -0.000000      1.000000
 -0.030709 -0.141837 -0.000000      1.000000
 -0.015354 -0.132972 -0.000000      1.000000
  0.000000 -0.106378  0.000000      1.000000
  0.015354 -0.097513  0.000000      1.000000
  0.030709 -0.088648  0.000000      1.000000
  0.046063 -0.079783  0.000000      1.000000
  0.061417 -0.070918  0.000000      1.000000
  0.076771 -0.062054  0.000000      1.000000
  0.092126 -0.053189  0.000000      1.000000
  0.107480 -0.044324  0.000000      1.000000
  0.122834 -0.035459  0.000000      1.000000
  0.138189 -0.026594  0.000000      1.000000
 -0.138189 -0.186161 -0.000000      1.000000
 -0.122834 -0.177296 -0.000000      1.000000
 -0.107480 -0.168431 -0.000000      1.000000
 -0.092126 -0.159567 -0.000000      1.000000
 -0.076771 -0.150702 -0.000000      1.000000
 -0.061417 -0.141837 -0.000000      1.000000
 -0.046063 -0.132972 -0.000000      1.000000
 -0.030709 -0.124107 -0.000000      1.000000
 -0.015354 -0.115242 -0.000000      1.000000
  0.000000 -0.088648  0.000000      1.000000
  0.015354 -0.079783  0.000000      1.000000
  0.030709 -0.070918  0.000000      1.000000
  0.046063 -0.062054  0.000000      1.000000
  0.061417 -0.053189  0.000000      1.000000
  0.076771 -0.044324  0.000000      1.000000
  0.092126 -0.035459  0.000000      1.000000
  0.107480 -0.026594  0.000000      1.000000
  0.122834 -0.017730  0.000000      1.000000
  0.138189 -0.008865  0.000000      1.000000
 -0.138189 -0.168431 -0.000000      1.000000
 -0.122834 -0.159567 -0.000000      1.000000
 -0.107480 -0.150702 -0.000000      1.000000
 -0.092126 -0.141837 -0.000000      1.000000
 -0.076771 -0.132972 -0.000000      1.000000
 -0.061417 -0.124107 -0.000000      1.000000
 -0.046063 -0.115242 -0.000000      1.000000
 -0.030709 -0.106378 -0.000000      1.000000
 -0.015354 -0.097513 -0.000000      1.000000
  0.000000 -0.070918  0.000000      1.000000
  0.015354 -0.062054  0.000000      1.000000
  0.030709 -0.053189  0.000000      1.000000
  0.046063 -0.044324  0.000000      1.000000
  0.061417 -0.035459  0.000000      1.000000
  0.076771 -0.026594  0.000000      1.000000
  0.092126 -0.017730  0.000000      1.000000
  0.107480 -0.008865  0.000000      1.000000
  0.122834  0.000000  0.000000      1.000000
  0.138189  0.008865  0.000000      1.000000
 -0.138189 -0.150702 -0.000000      1.000000
 -0.122834 -0.141837 -0.000000      1.000000
 -0.107480 -0.132972 -0.000000      1.000000
 -0.092126 -0.124107 -0.000000      1.000000
 -0.076771 -0.115242 -0.000000      1.000000
 -0.061417 -0.106378 -0.000000      1.000000
 -0.046063 -0.097513 -0.000000      1.000000
 -0.030709 -0.088648 -0.000000      1.000000
 -0.015354 -0.079783 -0.000000      1.000000
  0.000000 -0.053189  0.000000      1.000000
  0.015354 -0.044324  0.000000      1.000000
  0.030709 -0.035459  0.000000      1.000000
  0.046063 -0.026594  0.000000      1.000000
  0.061417 -0.017730  0.000000      1.000000
  0.076771 -0.008865  0.000000      1.000000
  0.092126  0.000000  0.000000      1.000000
  0.107480  0.008865  0.000000      1.000000
  0.122834  0.017730  0.000000      1.000000
  0.138189  0.026594  0.000000      1.000000
 -0.138189 -0.132972 -0.000000      1.000000
 -0.122834 -0.124107 -0.000000      1.000000
 -0.107480 -0.115242 -0.000000      1.000000
 -0.092126 -0.106378 -0.000000      1.000000
 -0.076771 -0.097513 -0.000000      1.000000
 -0.061417 -0.088648 -0.000000      1.000000
 -0.046063 -0.079783 -0.000000      1.000000
 -0.030709 -0.070918 -0.000000      1.000000
 -0.015354 -0.062054 -0.000000      1.000000
  0.000000 -0.035459  0.000000      1.000000
  0.015354 -0.026594  0.000000      1.000000
  0.030709 -0.017730  0.000000      1.000000
  0.046063 -0.008865  0.000000      1.000000
  0.061417  0.000000  0.000000      1.000000
  0.076771  0.008865  0.000000      1.000000
  0.092126  0.017730  0.000000      1.000000
  0.107480  0.026594  0.000000      1.000000
  0.122834  0.035459  0.000000      1.000000
  0.138189  0.044324  0.000000      1.000000
 -0.138189 -0.115242 -0.000000      1.000000
 -0.122834 -0.106378 -0.000000      1.000000
 -0.107480 -0.097513 -0.000000      1.000000
 -0.092126 -0.088648 -0.000000      1.000000
 -0.076771 -0.079783 -0.000000      1.000000
 -0.061417 -0.070918 -0.000000      1.000000
 -0.046063 -0.062054 -0.000000      1.000000
 -0.030709 -0.053189 -0.000000      1.000000
 -0.015354 -0.044324 -0.000000      1.000000
  0.000000 -0.017730  0.000000      1.000000
  0.015354 -0.008865  0.000000      1.000000
  0.030709  0.000000  0.000000      1.000000
  0.046063  0.008865  0.000000      1.000000
  0.061417  0.017730  0.000000      1.000000
  0.076771  0.026594  0.000000      1.000000
  0.092126  0.035459  0.000000      1.000000
  0.107480  0.044324  0.000000      1.000000
  0.122834  0.053189  0.000000      1.000000
  0.138189  0.062054  0.000000      1.000000
 -0.138189 -0.097513 -0.000000      1.000000
 -0.122834 -0.088648 -0.000000      1.000000
 -0.107480 -0.079783 -0.000000      1.000000
 -0.092126 -0.070918 -0.000000      1.000000
 -0.076771 -0.062054 -0.000000      1.000000
 -0.061417 -0.053189 -0.000000      1.000000
 -0.046063 -0.044324 -0.000000      1.000000
 -0.030709 -0.035459 -0.000000      1.000000
 -0.015354 -0.026594 -0.000000      1.000000
 


--------------------------------------------------------------------------------------------------------




 Dimension of arrays:
   k-points           NKPTS =    361   k-points in BZ     NKDIM =    361   number of bands    NBANDS=     64
   number of dos      NEDOS =   2001   number of ions     NIONS =      3
   non local maximal  LDIM  =      6   non local SUM 2l+1 LMDIM =     18
   total plane-waves  NPLWV =  76800
   max r-space proj   IRMAX =      1   max aug-charges    IRDMAX=  14328
   dimension x,y,z NGX =    20 NGY =   20 NGZ =  192
   dimension x,y,z NGXF=    40 NGYF=   40 NGZF=  384
   support grid    NGXF=    40 NGYF=   40 NGZF=  384
   ions per type =               1   1   1
   NGX,Y,Z   is equivalent  to a cutoff of   9.70,  9.70, 10.27 a.u.
   NGXF,Y,Z  is equivalent  to a cutoff of  19.40, 19.40, 20.55 a.u.

 SYSTEM =  unknown system                          
 POSCAR =  Cr S Te                                 

 Startparameter for this run:
   NWRITE =      2    write-flag & timer
   PREC   = accura    normal or accurate (medium, high low for compatibility)
   ISTART =      0    job   : 0-new  1-cont  2-samecut
   ICHARG =      1    charge: 1-file 2-atom 10-const
   ISPIN  =      1    spin polarized calculation?
   LNONCOLLINEAR =      T non collinear calculations
   LSORBIT =      T    spin-orbit coupling
   INIWAV =      1    electr: 0-lowe 1-rand  2-diag
   LASPH  =      T    aspherical Exc in radial PAW
 Electronic Relaxation 1
   ENCUT  =  330.0 eV  24.25 Ry    4.92 a.u.   5.08  5.08 46.02*2*pi/ulx,y,z
   ENINI  =  330.0     initial cutoff
   ENAUG  =  519.4 eV  augmentation charge cutoff
   NELM   =    200;   NELMIN=  6; NELMDL= -7     # of ELM steps 
   EDIFF  = 0.1E-06   stopping-criterion for ELM
   LREAL  =      F    real-space projection
   NLSPLINE    = F    spline interpolate recip. space projectors
   LCOMPAT=      F    compatible to vasp.4.4
   GGA_COMPAT  = T    GGA compatible to vasp.4.4-vasp.4.6
   LMAXPAW     = -100 max onsite density
   LMAXMIX     =    4 max onsite mixed and CHGCAR
   VOSKOWN=      1    Vosko Wilk Nusair interpolation
   ROPT   =    0.00000   0.00000   0.00000
 Ionic relaxation
   EDIFFG = -.1E-02   stopping-criterion for IOM
   NSW    =      0    number of steps for IOM
   NBLOCK =      1;   KBLOCK =      1    inner block; outer block 
   IBRION =     -1    ionic relax: 0-MD 1-quasi-New 2-CG
   NFREE  =      0    steps in history (QN), initial steepest desc. (CG)
   ISIF   =      3    stress and relaxation
   IWAVPR =     10    prediction:  0-non 1-charg 2-wave 3-comb
   ISYM   =     -1    0-nonsym 1-usesym 2-fastsym
   LCORR  =      T    Harris-Foulkes like correction to forces

   POTIM  = 0.5000    time-step for ionic-motion
   TEIN   =    0.0    initial temperature
   TEBEG  =    0.0;   TEEND  =   0.0 temperature during run
   SMASS  =  -3.00    Nose mass-parameter (am)
   estimated Nose-frequenzy (Omega)   =  0.10E-29 period in steps = 0.13E+47 mass=  -0.269E-27a.u.
   SCALEE = 1.0000    scale energy and forces
   NPACO  =    256;   APACO  = 10.0  distance and # of slots for P.C.
   PSTRESS=    0.0 pullay stress

  Mass of Ions in am
   POMASS =  52.00 32.07127.60
  Ionic Valenz
   ZVAL   =  12.00  6.00  6.00
  Atomic Wigner-Seitz radii
   RWIGS  =  -1.00 -1.00 -1.00
  virtual crystal weights 
   VCA    =   1.00  1.00  1.00
   NELECT =      24.0000    total number of electrons
   NUPDOWN=      -1.0000    fix difference up-down

 DOS related values:
   EMIN   =  10.00;   EMAX   =-10.00  energy-range for DOS
   EFERMI =   0.00
   ISMEAR =    -5;   SIGMA  =   0.05  broadening in eV -4-tet -1-fermi 0-gaus

 Electronic relaxation 2 (details)
   IALGO  =     68    algorithm
   LDIAG  =      T    sub-space diagonalisation (order eigenvalues)
   LSUBROT=      F    optimize rotation matrix (better conditioning)
   TURBO    =      0    0=normal 1=particle mesh
   IRESTART =      0    0=no restart 2=restart with 2 vectors
   NREBOOT  =      0    no. of reboots
   NMIN     =      0    reboot dimension
   EREF     =   0.00    reference energy to select bands
   IMIX   =      4    mixing-type and parameters
     AMIX     =   0.20;   BMIX     =  0.00
     AMIX_MAG =   0.80;   BMIX_MAG =  0.00
     AMIN     =   0.10
     WC   =   100.;   INIMIX=   1;  MIXPRE=   1;  MAXMIX= -45

 Intra band minimization:
   WEIMIN = 0.0000     energy-eigenvalue tresh-hold
   EBREAK =  0.39E-09  absolut break condition
   DEPER  =   0.30     relativ break condition  

   TIME   =   0.40     timestep for ELM

  volume/ion in A,a.u.               =     105.38       711.11
  Fermi-wavevector in a.u.,A,eV,Ry     =   0.693199  1.309957  6.537943  0.480525
  Thomas-Fermi vector in A             =   1.775346
 
 Write flags
   LWAVE        =      F    write WAVECAR
   LDOWNSAMPLE  =      F    k-point downsampling of WAVECAR
   LCHARG       =      T    write CHGCAR
   LVTOT        =      F    write LOCPOT, total local potential
   LVHAR        =      T    write LOCPOT, Hartree potential only
   LELF         =      F    write electronic localiz. function (ELF)
   LORBIT       =     12    0 simple, 1 ext, 2 COOP (PROOUT), +10 PAW based schemes


 Dipole corrections
   LMONO  =      F    monopole corrections only (constant potential shift)
   LDIPOL =      T    correct potential (dipole corrections)
   IDIPOL =      3    1-x, 2-y, 3-z, 4-all directions 
   EPSILON=  1.0000000 bulk dielectric constant

 LDA+U is selected, type is set to LDAUTYPE =  2
   angular momentum for each species LDAUL =     2   -1   -1
   U (eV)           for each species LDAUU =   3.0  0.0  0.0
   J (eV)           for each species LDAUJ =   0.0  0.0  0.0
 Exchange correlation treatment:
   GGA     =    --    GGA type
   LEXCH   =     8    internal setting for exchange type
   LIBXC   =     F    Libxc                    
   VOSKOWN =     1    Vosko Wilk Nusair interpolation
   LHFCALC =     F    Hartree Fock is set to
   LHFONE  =     F    Hartree Fock one center treatment
   AEXX    =    0.0000 exact exchange contribution

 Linear response parameters
   LEPSILON=     F    determine dielectric tensor
   LRPA    =     F    only Hartree local field effects (RPA)
   LNABLA  =     F    use nabla operator in PAW spheres
   LVEL    =     F    velocity operator in full k-point grid
   CSHIFT  =0.1000    complex shift for real part using Kramers Kronig
   OMEGAMAX=  -1.0    maximum frequency
   DEG_THRESHOLD= 0.2000000E-02 threshold for treating states as degnerate
   RTIME   =   -0.100 relaxation time in fs
  (WPLASMAI=    0.000 imaginary part of plasma frequency in eV, 0.658/RTIME)
   DFIELD  = 0.0000000 0.0000000 0.0000000 field for delta impulse in time
 
  Optional k-point grid parameters
   LKPOINTS_OPT  =     F    use optional k-point grid
   KPOINTS_OPT_MODE=     1    mode for optional k-point grid
 
 Orbital magnetization related:
   ORBITALMAG=     F  switch on orbital magnetization
   LCHIMAG   =     F  perturbation theory with respect to B field
   DQ        =  0.001000  dq finite difference perturbation B field
   LLRAUG    =     F  two centre corrections for induced B field



--------------------------------------------------------------------------------------------------------


 Static calculation
 charge density and potential will be updated during run
 non collinear spin polarized calculation
 RMM-DIIS sequential band-by-band and
  variant of blocked Davidson during initial phase
 perform sub-space diagonalisation
    before iterative eigenvector-optimisation
 modified Broyden-mixing scheme, WC =      100.0
 initial mixing is a Kerker type mixing with AMIX =  0.2000 and BMIX =      0.0000
 Hartree-type preconditioning will be used
 using additional bands           52
 reciprocal scheme for non local part
 use partial core corrections
 calculate Harris-corrections to forces 
   (improved forces if not selfconsistent)
 use gradient corrections 
 use of overlap-Matrix (Vanderbilt PP)
 Fermi weights with tetrahedron method with Bloechl corrections


--------------------------------------------------------------------------------------------------------


  energy-cutoff  :      330.00
  volume of cell :      316.13
      direct lattice vectors                 reciprocal lattice vectors
     3.427808124  0.000000218  0.000000000     0.291731604  0.168431348  0.000000000
    -1.713904293  2.968568820  0.000000000    -0.000000021  0.336862651 -0.000000000
    -0.000000000  0.000000000 31.066888743     0.000000000  0.000000000  0.032188611

  length of vectors
     3.427808124  3.427808158 31.066888743     0.336862655  0.336862651  0.032188611


 
 k-points in units of 2pi/SCALE and weight: pymatgen with grid density = 603 / numbe
   0.00000000  0.00000000  0.00000000       0.003
   0.01535429  0.00886481  0.00000000       0.003
   0.03070859  0.01772962  0.00000000       0.003
   0.04606288  0.02659442  0.00000000       0.003
   0.06141718  0.03545923  0.00000000       0.003
   0.07677147  0.04432404  0.00000000       0.003
   0.09212577  0.05318885  0.00000000       0.003
   0.10748006  0.06205365  0.00000000       0.003
   0.12283436  0.07091846  0.00000000       0.003
   0.13818865  0.07978327  0.00000000       0.003
  -0.13818865 -0.07978327 -0.00000000       0.003
  -0.12283436 -0.07091846 -0.00000000       0.003
  -0.10748006 -0.06205365 -0.00000000       0.003
  -0.09212577 -0.05318885 -0.00000000       0.003
  -0.07677147 -0.04432404 -0.00000000       0.003
  -0.06141718 -0.03545923 -0.00000000       0.003
  -0.04606288 -0.02659442 -0.00000000       0.003
  -0.03070859 -0.01772962 -0.00000000       0.003
  -0.01535429 -0.00886481 -0.00000000       0.003
  -0.00000000  0.01772961 -0.00000000       0.003
   0.01535429  0.02659442  0.00000000       0.003
   0.03070859  0.03545923  0.00000000       0.003
   0.04606288  0.04432404  0.00000000       0.003
   0.06141718  0.05318884  0.00000000       0.003
   0.07677147  0.06205365  0.00000000       0.003
   0.09212577  0.07091846  0.00000000       0.003
   0.10748006  0.07978327  0.00000000       0.003
   0.12283436  0.08864808  0.00000000       0.003
   0.13818865  0.09751288  0.00000000       0.003
  -0.13818866 -0.06205366 -0.00000000       0.003
  -0.12283436 -0.05318885 -0.00000000       0.003
  -0.10748007 -0.04432404 -0.00000000       0.003
  -0.09212577 -0.03545923 -0.00000000       0.003
  -0.07677148 -0.02659443 -0.00000000       0.003
  -0.06141718 -0.01772962 -0.00000000       0.003
  -0.04606289 -0.00886481 -0.00000000       0.003
  -0.03070859 -0.00000000 -0.00000000       0.003
  -0.01535430  0.00886481 -0.00000000       0.003
  -0.00000000  0.03545923 -0.00000000       0.003
   0.01535429  0.04432403  0.00000000       0.003
   0.03070859  0.05318884  0.00000000       0.003
   0.04606288  0.06205365  0.00000000       0.003
   0.06141718  0.07091846  0.00000000       0.003
   0.07677147  0.07978327  0.00000000       0.003
   0.09212577  0.08864807  0.00000000       0.003
   0.10748006  0.09751288  0.00000000       0.003
   0.12283436  0.10637769  0.00000000       0.003
   0.13818865  0.11524250  0.00000000       0.003
  -0.13818866 -0.04432404 -0.00000000       0.003
  -0.12283436 -0.03545924 -0.00000000       0.003
  -0.10748007 -0.02659443 -0.00000000       0.003
  -0.09212577 -0.01772962 -0.00000000       0.003
  -0.07677148 -0.00886481 -0.00000000       0.003
  -0.06141718 -0.00000000 -0.00000000       0.003
  -0.04606289  0.00886480 -0.00000000       0.003
  -0.03070859  0.01772961 -0.00000000       0.003
  -0.01535430  0.02659442 -0.00000000       0.003
  -0.00000000  0.05318884 -0.00000000       0.003
   0.01535429  0.06205365  0.00000000       0.003
   0.03070859  0.07091846  0.00000000       0.003
   0.04606288  0.07978326  0.00000000       0.003
   0.06141718  0.08864807  0.00000000       0.003
   0.07677147  0.09751288  0.00000000       0.003
   0.09212577  0.10637769  0.00000000       0.003
   0.10748006  0.11524249  0.00000000       0.003
   0.12283436  0.12410730  0.00000000       0.003
   0.13818865  0.13297211  0.00000000       0.003
  -0.13818866 -0.02659443 -0.00000000       0.003
  -0.12283436 -0.01772962 -0.00000000       0.003
  -0.10748007 -0.00886481 -0.00000000       0.003
  -0.09212577 -0.00000001 -0.00000000       0.003
  -0.07677148  0.00886480 -0.00000000       0.003
  -0.06141718  0.01772961 -0.00000000       0.003
  -0.04606289  0.02659442 -0.00000000       0.003
  -0.03070859  0.03545922 -0.00000000       0.003
  -0.01535430  0.04432403 -0.00000000       0.003
  -0.00000000  0.07091845 -0.00000000       0.003
   0.01535429  0.07978326  0.00000000       0.003
   0.03070859  0.08864807  0.00000000       0.003
   0.04606288  0.09751288  0.00000000       0.003
   0.06141718  0.10637768  0.00000000       0.003
   0.07677147  0.11524249  0.00000000       0.003
   0.09212577  0.12410730  0.00000000       0.003
   0.10748006  0.13297211  0.00000000       0.003
   0.12283436  0.14183692  0.00000000       0.003
   0.13818865  0.15070172  0.00000000       0.003
  -0.13818866 -0.00886482 -0.00000000       0.003
  -0.12283436 -0.00000001 -0.00000000       0.003
  -0.10748007  0.00886480 -0.00000000       0.003
  -0.09212577  0.01772961 -0.00000000       0.003
  -0.07677148  0.02659441 -0.00000000       0.003
  -0.06141718  0.03545922 -0.00000000       0.003
  -0.04606289  0.04432403 -0.00000000       0.003
  -0.03070859  0.05318884 -0.00000000       0.003
  -0.01535430  0.06205365 -0.00000000       0.003
  -0.00000001  0.08864807 -0.00000000       0.003
   0.01535429  0.09751287  0.00000000       0.003
   0.03070858  0.10637768  0.00000000       0.003
   0.04606288  0.11524249  0.00000000       0.003
   0.06141717  0.12410730  0.00000000       0.003
   0.07677147  0.13297211  0.00000000       0.003
   0.09212576  0.14183691  0.00000000       0.003
   0.10748006  0.15070172  0.00000000       0.003
   0.12283435  0.15956653  0.00000000       0.003
   0.13818865  0.16843134  0.00000000       0.003
  -0.13818866  0.00886480 -0.00000000       0.003
  -0.12283437  0.01772960 -0.00000000       0.003
  -0.10748007  0.02659441 -0.00000000       0.003
  -0.09212578  0.03545922 -0.00000000       0.003
  -0.07677148  0.04432403 -0.00000000       0.003
  -0.06141719  0.05318883 -0.00000000       0.003
  -0.04606289  0.06205364 -0.00000000       0.003
  -0.03070860  0.07091845 -0.00000000       0.003
  -0.01535430  0.07978326 -0.00000000       0.003
  -0.00000001  0.10637768 -0.00000000       0.003
   0.01535429  0.11524249  0.00000000       0.003
   0.03070858  0.12410729  0.00000000       0.003
   0.04606288  0.13297210  0.00000000       0.003
   0.06141717  0.14183691  0.00000000       0.003
   0.07677147  0.15070172  0.00000000       0.003
   0.09212576  0.15956653  0.00000000       0.003
   0.10748006  0.16843133  0.00000000       0.003
   0.12283435  0.17729614  0.00000000       0.003
   0.13818865  0.18616095  0.00000000       0.003
  -0.13818866  0.02659441 -0.00000000       0.003
  -0.12283437  0.03545922 -0.00000000       0.003
  -0.10748007  0.04432402 -0.00000000       0.003
  -0.09212578  0.05318883 -0.00000000       0.003
  -0.07677148  0.06205364 -0.00000000       0.003
  -0.06141719  0.07091845 -0.00000000       0.003
  -0.04606289  0.07978326 -0.00000000       0.003
  -0.03070860  0.08864806 -0.00000000       0.003
  -0.01535430  0.09751287 -0.00000000       0.003
  -0.00000001  0.12410729 -0.00000000       0.003
   0.01535429  0.13297210  0.00000000       0.003
   0.03070858  0.14183691  0.00000000       0.003
   0.04606288  0.15070172  0.00000000       0.003
   0.06141717  0.15956652  0.00000000       0.003
   0.07677147  0.16843133  0.00000000       0.003
   0.09212576  0.17729614  0.00000000       0.003
   0.10748006  0.18616095  0.00000000       0.003
   0.12283435  0.19502576  0.00000000       0.003
   0.13818865  0.20389056  0.00000000       0.003
  -0.13818866  0.04432402 -0.00000000       0.003
  -0.12283437  0.05318883 -0.00000000       0.003
  -0.10748007  0.06205364 -0.00000000       0.003
  -0.09212578  0.07091845 -0.00000000       0.003
  -0.07677148  0.07978325 -0.00000000       0.003
  -0.06141719  0.08864806 -0.00000000       0.003
  -0.04606289  0.09751287 -0.00000000       0.003
  -0.03070860  0.10637768 -0.00000000       0.003
  -0.01535430  0.11524248 -0.00000000       0.003
  -0.00000001  0.14183691 -0.00000000       0.003
   0.01535429  0.15070171  0.00000000       0.003
   0.03070858  0.15956652  0.00000000       0.003
   0.04606288  0.16843133  0.00000000       0.003
   0.06141717  0.17729614  0.00000000       0.003
   0.07677147  0.18616094  0.00000000       0.003
   0.09212576  0.19502575  0.00000000       0.003
   0.10748006  0.20389056  0.00000000       0.003
   0.12283435  0.21275537  0.00000000       0.003
   0.13818865  0.22162018  0.00000000       0.003
  -0.13818866  0.06205364 -0.00000000       0.003
  -0.12283437  0.07091844 -0.00000000       0.003
  -0.10748007  0.07978325 -0.00000000       0.003
  -0.09212578  0.08864806 -0.00000000       0.003
  -0.07677148  0.09751287 -0.00000000       0.003
  -0.06141719  0.10637767 -0.00000000       0.003
  -0.04606289  0.11524248 -0.00000000       0.003
  -0.03070860  0.12410729 -0.00000000       0.003
  -0.01535430  0.13297210 -0.00000000       0.003
  -0.00000001  0.15956652 -0.00000000       0.003
   0.01535428  0.16843133  0.00000000       0.003
   0.03070858  0.17729613  0.00000000       0.003
   0.04606287  0.18616094  0.00000000       0.003
   0.06141717  0.19502575  0.00000000       0.003
   0.07677146  0.20389056  0.00000000       0.003
   0.09212576  0.21275537  0.00000000       0.003
   0.10748005  0.22162017  0.00000000       0.003
   0.12283435  0.23048498  0.00000000       0.003
   0.13818864  0.23934979  0.00000000       0.003
  -0.13818866  0.07978325 -0.00000000       0.003
  -0.12283437  0.08864806 -0.00000000       0.003
  -0.10748007  0.09751286 -0.00000000       0.003
  -0.09212578  0.10637767 -0.00000000       0.003
  -0.07677148  0.11524248 -0.00000000       0.003
  -0.06141719  0.12410729 -0.00000000       0.003
  -0.04606290  0.13297210 -0.00000000       0.003
  -0.03070860  0.14183690 -0.00000000       0.003
  -0.01535431  0.15070171 -0.00000000       0.003
   0.00000001 -0.15956652  0.00000000       0.003
   0.01535431 -0.15070171  0.00000000       0.003
   0.03070860 -0.14183690  0.00000000       0.003
   0.04606290 -0.13297210  0.00000000       0.003
   0.06141719 -0.12410729  0.00000000       0.003
   0.07677148 -0.11524248  0.00000000       0.003
   0.09212578 -0.10637767  0.00000000       0.003
   0.10748007 -0.09751286  0.00000000       0.003
   0.12283437 -0.08864806  0.00000000       0.003
   0.13818866 -0.07978325  0.00000000       0.003
  -0.13818864 -0.23934979 -0.00000000       0.003
  -0.12283435 -0.23048498 -0.00000000       0.003
  -0.10748005 -0.22162017 -0.00000000       0.003
  -0.09212576 -0.21275537 -0.00000000       0.003
  -0.07677146 -0.20389056 -0.00000000       0.003
  -0.06141717 -0.19502575 -0.00000000       0.003
  -0.04606287 -0.18616094 -0.00000000       0.003
  -0.03070858 -0.17729613 -0.00000000       0.003
  -0.01535428 -0.16843133 -0.00000000       0.003
   0.00000001 -0.14183691  0.00000000       0.003
   0.01535430 -0.13297210  0.00000000       0.003
   0.03070860 -0.12410729  0.00000000       0.003
   0.04606289 -0.11524248  0.00000000       0.003
   0.06141719 -0.10637767  0.00000000       0.003
   0.07677148 -0.09751287  0.00000000       0.003
   0.09212578 -0.08864806  0.00000000       0.003
   0.10748007 -0.07978325  0.00000000       0.003
   0.12283437 -0.07091844  0.00000000       0.003
   0.13818866 -0.06205364  0.00000000       0.003
  -0.13818865 -0.22162018 -0.00000000       0.003
  -0.12283435 -0.21275537 -0.00000000       0.003
  -0.10748006 -0.20389056 -0.00000000       0.003
  -0.09212576 -0.19502575 -0.00000000       0.003
  -0.07677147 -0.18616094 -0.00000000       0.003
  -0.06141717 -0.17729614 -0.00000000       0.003
  -0.04606288 -0.16843133 -0.00000000       0.003
  -0.03070858 -0.15956652 -0.00000000       0.003
  -0.01535429 -0.15070171 -0.00000000       0.003
   0.00000001 -0.12410729  0.00000000       0.003
   0.01535430 -0.11524248  0.00000000       0.003
   0.03070860 -0.10637768  0.00000000       0.003
   0.04606289 -0.09751287  0.00000000       0.003
   0.06141719 -0.08864806  0.00000000       0.003
   0.07677148 -0.07978325  0.00000000       0.003
   0.09212578 -0.07091845  0.00000000       0.003
   0.10748007 -0.06205364  0.00000000       0.003
   0.12283437 -0.05318883  0.00000000       0.003
   0.13818866 -0.04432402  0.00000000       0.003
  -0.13818865 -0.20389056 -0.00000000       0.003
  -0.12283435 -0.19502576 -0.00000000       0.003
  -0.10748006 -0.18616095 -0.00000000       0.003
  -0.09212576 -0.17729614 -0.00000000       0.003
  -0.07677147 -0.16843133 -0.00000000       0.003
  -0.06141717 -0.15956652 -0.00000000       0.003
  -0.04606288 -0.15070172 -0.00000000       0.003
  -0.03070858 -0.14183691 -0.00000000       0.003
  -0.01535429 -0.13297210 -0.00000000       0.003
   0.00000001 -0.10637768  0.00000000       0.003
   0.01535430 -0.09751287  0.00000000       0.003
   0.03070860 -0.08864806  0.00000000       0.003
   0.04606289 -0.07978326  0.00000000       0.003
   0.06141719 -0.07091845  0.00000000       0.003
   0.07677148 -0.06205364  0.00000000       0.003
   0.09212578 -0.05318883  0.00000000       0.003
   0.10748007 -0.04432402  0.00000000       0.003
   0.12283437 -0.03545922  0.00000000       0.003
   0.13818866 -0.02659441  0.00000000       0.003
  -0.13818865 -0.18616095 -0.00000000       0.003
  -0.12283435 -0.17729614 -0.00000000       0.003
  -0.10748006 -0.16843133 -0.00000000       0.003
  -0.09212576 -0.15956653 -0.00000000       0.003
  -0.07677147 -0.15070172 -0.00000000       0.003
  -0.06141717 -0.14183691 -0.00000000       0.003
  -0.04606288 -0.13297210 -0.00000000       0.003
  -0.03070858 -0.12410729 -0.00000000       0.003
  -0.01535429 -0.11524249 -0.00000000       0.003
   0.00000001 -0.08864807  0.00000000       0.003
   0.01535430 -0.07978326  0.00000000       0.003
   0.03070860 -0.07091845  0.00000000       0.003
   0.04606289 -0.06205364  0.00000000       0.003
   0.06141719 -0.05318883  0.00000000       0.003
   0.07677148 -0.04432403  0.00000000       0.003
   0.09212578 -0.03545922  0.00000000       0.003
   0.10748007 -0.02659441  0.00000000       0.003
   0.12283437 -0.01772960  0.00000000       0.003
   0.13818866 -0.00886480  0.00000000       0.003
  -0.13818865 -0.16843134 -0.00000000       0.003
  -0.12283435 -0.15956653 -0.00000000       0.003
  -0.10748006 -0.15070172 -0.00000000       0.003
  -0.09212576 -0.14183691 -0.00000000       0.003
  -0.07677147 -0.13297211 -0.00000000       0.003
  -0.06141717 -0.12410730 -0.00000000       0.003
  -0.04606288 -0.11524249 -0.00000000       0.003
  -0.03070858 -0.10637768 -0.00000000       0.003
  -0.01535429 -0.09751287 -0.00000000       0.003
   0.00000000 -0.07091845  0.00000000       0.003
   0.01535430 -0.06205365  0.00000000       0.003
   0.03070859 -0.05318884  0.00000000       0.003
   0.04606289 -0.04432403  0.00000000       0.003
   0.06141718 -0.03545922  0.00000000       0.003
   0.07677148 -0.02659441  0.00000000       0.003
   0.09212577 -0.01772961  0.00000000       0.003
   0.10748007 -0.00886480  0.00000000       0.003
   0.12283436  0.00000001  0.00000000       0.003
   0.13818866  0.00886482  0.00000000       0.003
  -0.13818865 -0.15070172 -0.00000000       0.003
  -0.12283436 -0.14183692 -0.00000000       0.003
  -0.10748006 -0.13297211 -0.00000000       0.003
  -0.09212577 -0.12410730 -0.00000000       0.003
  -0.07677147 -0.11524249 -0.00000000       0.003
  -0.06141718 -0.10637768 -0.00000000       0.003
  -0.04606288 -0.09751288 -0.00000000       0.003
  -0.03070859 -0.08864807 -0.00000000       0.003
  -0.01535429 -0.07978326 -0.00000000       0.003
   0.00000000 -0.05318884  0.00000000       0.003
   0.01535430 -0.04432403  0.00000000       0.003
   0.03070859 -0.03545922  0.00000000       0.003
   0.04606289 -0.02659442  0.00000000       0.003
   0.06141718 -0.01772961  0.00000000       0.003
   0.07677148 -0.00886480  0.00000000       0.003
   0.09212577  0.00000001  0.00000000       0.003
   0.10748007  0.00886481  0.00000000       0.003
   0.12283436  0.01772962  0.00000000       0.003
   0.13818866  0.02659443  0.00000000       0.003
  -0.13818865 -0.13297211 -0.00000000       0.003
  -0.12283436 -0.12410730 -0.00000000       0.003
  -0.10748006 -0.11524249 -0.00000000       0.003
  -0.09212577 -0.10637769 -0.00000000       0.003
  -0.07677147 -0.09751288 -0.00000000       0.003
  -0.06141718 -0.08864807 -0.00000000       0.003
  -0.04606288 -0.07978326 -0.00000000       0.003
  -0.03070859 -0.07091846 -0.00000000       0.003
  -0.01535429 -0.06205365 -0.00000000       0.003
   0.00000000 -0.03545923  0.00000000       0.003
   0.01535430 -0.02659442  0.00000000       0.003
   0.03070859 -0.01772961  0.00000000       0.003
   0.04606289 -0.00886480  0.00000000       0.003
   0.06141718  0.00000000  0.00000000       0.003
   0.07677148  0.00886481  0.00000000       0.003
   0.09212577  0.01772962  0.00000000       0.003
   0.10748007  0.02659443  0.00000000       0.003
   0.12283436  0.03545924  0.00000000       0.003
   0.13818866  0.04432404  0.00000000       0.003
  -0.13818865 -0.11524250 -0.00000000       0.003
  -0.12283436 -0.10637769 -0.00000000       0.003
  -0.10748006 -0.09751288 -0.00000000       0.003
  -0.09212577 -0.08864807 -0.00000000       0.003
  -0.07677147 -0.07978327 -0.00000000       0.003
  -0.06141718 -0.07091846 -0.00000000       0.003
  -0.04606288 -0.06205365 -0.00000000       0.003
  -0.03070859 -0.05318884 -0.00000000       0.003
  -0.01535429 -0.04432403 -0.00000000       0.003
   0.00000000 -0.01772961  0.00000000       0.003
   0.01535430 -0.00886481  0.00000000       0.003
   0.03070859  0.00000000  0.00000000       0.003
   0.04606289  0.00886481  0.00000000       0.003
   0.06141718  0.01772962  0.00000000       0.003
   0.07677148  0.02659443  0.00000000       0.003
   0.09212577  0.03545923  0.00000000       0.003
   0.10748007  0.04432404  0.00000000       0.003
   0.12283436  0.05318885  0.00000000       0.003
   0.13818866  0.06205366  0.00000000       0.003
  -0.13818865 -0.09751288 -0.00000000       0.003
  -0.12283436 -0.08864808 -0.00000000       0.003
  -0.10748006 -0.07978327 -0.00000000       0.003
  -0.09212577 -0.07091846 -0.00000000       0.003
  -0.07677147 -0.06205365 -0.00000000       0.003
  -0.06141718 -0.05318884 -0.00000000       0.003
  -0.04606288 -0.04432404 -0.00000000       0.003
  -0.03070859 -0.03545923 -0.00000000       0.003
  -0.01535429 -0.02659442 -0.00000000       0.003
 
 k-points in reciprocal lattice and weights: pymatgen with grid density = 603 / numbe
   0.00000000  0.00000000  0.00000000       0.003
   0.05263158 -0.00000000  0.00000000       0.003
   0.10526316 -0.00000000  0.00000000       0.003
   0.15789474 -0.00000000  0.00000000       0.003
   0.21052632 -0.00000000  0.00000000       0.003
   0.26315789 -0.00000000  0.00000000       0.003
   0.31578947  0.00000000  0.00000000       0.003
   0.36842105  0.00000000  0.00000000       0.003
   0.42105263 -0.00000000  0.00000000       0.003
   0.47368421  0.00000000  0.00000000       0.003
  -0.47368421 -0.00000000 -0.00000000       0.003
  -0.42105263  0.00000000  0.00000000       0.003
  -0.36842105  0.00000000 -0.00000000       0.003
  -0.31578947 -0.00000000 -0.00000000       0.003
  -0.26315789  0.00000000 -0.00000000       0.003
  -0.21052632  0.00000000  0.00000000       0.003
[...]
  0.000  -0.000   0.000   0.000  -0.000   0.000   0.011   0.000  -0.000   0.020  -0.000  -0.004  -0.000   0.000  -0.014   0.000
 -0.000  -0.000  -0.000  -0.000  -0.000   0.000   0.014  -0.000  -0.000  -0.015  -0.000  -0.013   0.000   0.000   0.017   0.000
  0.000  -0.000  -0.000   0.000   0.001   0.000  -0.000   0.020  -0.032  -0.000   0.011   0.000  -0.014   0.017   0.000  -0.004
 -0.000  -0.000   0.000  -0.000  -0.000   0.000  -0.018  -0.000  -0.000   0.001  -0.000   0.013   0.000   0.000  -0.004  -0.000
  0.000   0.000   0.000  -0.000  -0.000  -0.000   0.002  -0.000  -0.000  -0.001  -0.000  -0.001   0.000   0.000   0.001   0.000
 -0.000   0.000  -0.000   0.000   0.000   0.000  -0.000   0.000  -0.000  -0.000  -0.000   0.000  -0.000  -0.000   0.000   0.000
 total augmentation occupancy for first ion, spin component:           3
  0.000  -0.000  -0.000   0.000  -0.000  -0.000  -0.000   0.000   0.000   0.000   0.000   0.000  -0.000  -0.000  -0.000  -0.000
 -0.000   0.000  -0.000   0.000   0.000  -0.000   0.000   0.000  -0.000   0.000  -0.000  -0.000  -0.000   0.000  -0.000   0.000
 -0.000  -0.000  -0.000   0.000  -0.000  -0.000  -0.000   0.000   0.000  -0.000   0.000   0.000  -0.000  -0.000   0.000  -0.000
  0.000   0.000   0.000   0.000   0.000   0.000   0.000  -0.000  -0.002   0.000  -0.000   0.000  -0.000   0.000  -0.000  -0.000
 -0.000   0.000  -0.000   0.000   0.000  -0.000  -0.000  -0.000  -0.000   0.000   0.001  -0.000   0.001   0.000  -0.000  -0.001
 -0.000  -0.000  -0.000   0.000  -0.000  -0.000   0.000  -0.000   0.000   0.000   0.000   0.000  -0.000  -0.000   0.000  -0.000
 -0.000   0.000  -0.000   0.000  -0.000   0.000   0.023   0.000   0.000  -0.008  -0.000  -0.018  -0.000  -0.000   0.011   0.000
  0.000   0.000   0.000  -0.000  -0.000  -0.000   0.000   0.024   0.029   0.000   0.008  -0.000  -0.020  -0.015  -0.000  -0.001
  0.000  -0.000   0.000  -0.002  -0.000   0.000   0.000   0.029  -0.000   0.000  -0.019   0.000  -0.032   0.000  -0.000   0.019
  0.000   0.000  -0.000   0.000   0.000   0.000  -0.008   0.000   0.000  -0.024  -0.000   0.001  -0.000  -0.000   0.020   0.000
  0.000  -0.000   0.000  -0.000   0.001   0.000  -0.000   0.008  -0.019  -0.000  -0.023   0.000  -0.011   0.014   0.000   0.018
  0.000  -0.000   0.000   0.000  -0.000   0.000  -0.018  -0.000   0.000   0.001   0.000   0.013   0.000  -0.000  -0.004  -0.000
 -0.000  -0.000  -0.000  -0.000   0.001  -0.000  -0.000  -0.020  -0.032  -0.000  -0.011   0.000   0.014   0.017   0.000   0.004
 -0.000   0.000  -0.000   0.000   0.000  -0.000  -0.000  -0.015   0.000  -0.000   0.014  -0.000   0.017  -0.000   0.000  -0.013
 -0.000  -0.000   0.000  -0.000  -0.000   0.000   0.011  -0.000  -0.000   0.020   0.000  -0.004   0.000   0.000  -0.014  -0.000
 -0.000   0.000  -0.000  -0.000  -0.001  -0.000   0.000  -0.001   0.019   0.000   0.018  -0.000   0.004  -0.013  -0.000  -0.013
  0.000  -0.000   0.000  -0.000   0.000   0.000  -0.000  -0.001   0.000  -0.000   0.002   0.000   0.001  -0.000   0.000  -0.001
 -0.000  -0.000  -0.000   0.000  -0.000   0.000  -0.000  -0.000  -0.000   0.000  -0.000   0.000   0.000   0.000  -0.000   0.000
 total augmentation occupancy for first ion, spin component:           4
 -0.001  -0.000  -0.000  -0.004  -0.000   0.000  -0.000   0.005  -0.000   0.000  -0.003   0.000  -0.005   0.000  -0.000   0.003
 -0.000  -0.001   0.000  -0.000  -0.004   0.000   0.000   0.000   0.002  -0.000  -0.000  -0.000  -0.000  -0.002   0.000   0.000
 -0.000   0.000  -0.001   0.000   0.000  -0.004  -0.003   0.000   0.000   0.005  -0.000   0.003  -0.000  -0.000  -0.005   0.000
 -0.004  -0.000   0.000   0.009   0.000   0.000  -0.000  -0.041  -0.000   0.000   0.027   0.000   0.030   0.000  -0.000  -0.022
 -0.000  -0.004   0.000   0.000   0.017  -0.000   0.000   0.000  -0.013  -0.000  -0.000  -0.000  -0.000   0.003   0.000   0.000
  0.000   0.000  -0.004   0.000  -0.000   0.009   0.027   0.000   0.000  -0.041  -0.000  -0.022  -0.000  -0.000   0.030   0.000
 -0.000   0.000  -0.003  -0.000   0.000   0.027   1.677  -0.000   0.000   1.459   0.000  -0.468   0.000  -0.000  -0.833  -0.000
  0.005   0.000   0.000  -0.041   0.000   0.000  -0.000   0.651  -0.000   0.000   1.459   0.000   0.124   0.000  -0.000  -0.840
 -0.000   0.002   0.000  -0.000  -0.013   0.000   0.000  -0.000   2.895   0.000  -0.000  -0.000  -0.000  -1.197   0.000   0.000
  0.000  -0.000   0.005   0.000  -0.000  -0.041   1.459   0.000   0.000   0.651  -0.000  -0.840  -0.000  -0.000   0.124   0.000
 -0.003  -0.000  -0.000   0.027  -0.000  -0.000   0.000   1.459  -0.000  -0.000   1.677  -0.000  -0.833   0.000   0.000  -0.468
  0.000  -0.000   0.003   0.000  -0.000  -0.022  -0.468   0.000  -0.000  -0.840  -0.000   0.048  -0.000   0.000   0.550   0.000
 -0.005  -0.000  -0.000   0.030  -0.000  -0.000   0.000   0.124  -0.000  -0.000  -0.833  -0.000  -0.322   0.000   0.000   0.550
  0.000  -0.002  -0.000   0.000   0.003  -0.000  -0.000   0.000  -1.197  -0.000   0.000   0.000   0.000   0.535  -0.000  -0.000
 -0.000   0.000  -0.005  -0.000   0.000   0.030  -0.833  -0.000   0.000   0.124   0.000   0.550   0.000  -0.000  -0.323  -0.000
  0.003   0.000   0.000  -0.022   0.000   0.000  -0.000  -0.840   0.000   0.000  -0.468   0.000   0.550  -0.000  -0.000   0.048
 -0.000  -0.001   0.000  -0.000  -0.012   0.000   0.000  -0.000   0.073   0.000  -0.000  -0.000   0.000  -0.009  -0.000   0.000
  0.000  -0.000  -0.000  -0.000  -0.001   0.000  -0.000   0.000  -0.042  -0.000   0.000   0.000  -0.000   0.017   0.000  -0.000


------------------------ aborting loop because EDIFF is reached ----------------------------------------





 total charge

# of ion       s       p       d       tot
------------------------------------------
    1        0.290   6.254   4.090  10.634
    2        1.353   2.369   0.000   3.721
    3        1.407   1.908   0.038   3.354
--------------------------------------------------
tot          3.050  10.531   4.129  17.709



 magnetization (x)

# of ion       s       p       d       tot
------------------------------------------
    1        0.000  -0.000   0.000   0.000
    2       -0.000  -0.000   0.000  -0.000
    3        0.000  -0.000   0.000   0.000
--------------------------------------------------
tot         -0.000  -0.000   0.000   0.000



 magnetization (y)

# of ion       s       p       d       tot
------------------------------------------
    1       -0.000   0.000  -0.000  -0.000
    2       -0.000   0.000   0.000   0.000
    3       -0.000   0.000   0.000   0.000
--------------------------------------------------
tot         -0.000   0.000  -0.000  -0.000



 magnetization (z)

# of ion       s       p       d       tot
------------------------------------------
    1        0.040   0.026   3.067   3.132
    2       -0.008  -0.197   0.000  -0.205
    3       -0.002  -0.129   0.001  -0.130
--------------------------------------------------
tot          0.030  -0.300   3.067   2.797
 
    CHARGE:  cpu time      0.5487: real time      0.5489
    FORLOC:  cpu time      0.0019: real time      0.0019
    FORNL :  cpu time      0.9475: real time      0.9476
    STRESS:  cpu time      2.2331: real time      2.2338
    FORCOR:  cpu time      0.0811: real time      0.0811
    FORHAR:  cpu time      0.0077: real time      0.0077
    MIXING:  cpu time      0.0024: real time      0.0024
    OFIELD:  cpu time      0.0000: real time      0.0000

 ---------------------------------------------------------------------------------------------

         DFTD3 V3.0 Rev 1        
 IVDW         = 12
 DF pbe       
 parameters
 VDW_S6       =    1.0000
 VDW_S8       =    0.7875
 VDW_A1       =    0.4289
 VDW_A2       =    4.4407
 k1-k3        =   16.0000    1.3333   -4.0000
 VDW_RADIUS   =   50.2022 A
 VDW_CNRADIUS =   21.1671 A
 Edisp (eV)   -1.01359

 E6    (eV) :    -0.5536
 E8    (eV) :    -0.4600
 % E8        : 45.38
    FORVDW:  cpu time      0.0154: real time      0.1370

  FORCE on cell =-STRESS in cart. coord.  units (eV):
  Direction    XX          YY          ZZ          XY          YZ          ZX
  --------------------------------------------------------------------------------------
  Alpha Z     8.85200     8.85200     8.85200
  Ewald    9438.56788  9438.56739-10522.84153    -0.00020    -0.00018     0.00009
  Hartree  9839.14170  9839.14169 -9526.87258     0.00007    -0.00010     0.00010
  E(xc)    -111.04293  -111.04296  -111.67942    -0.00002     0.00000    -0.00001
  Local  -19645.06917-19645.06916 19674.72356    -0.00031     0.00034    -0.00028
  n-local   148.68876   148.68875   152.42519     0.00001    -0.00001    -0.00001
  augment    46.95442    46.95466    45.90393     0.00020    -0.00002     0.00006
  Kinetic   274.98550   274.98603   279.89354     0.00046    -0.00013     0.00021
  Fock        0.00000     0.00000     0.00000     0.00000     0.00000     0.00000
  vdW        -1.02364    -1.02364    -0.38562    -0.00000     0.00000     0.00000
  -------------------------------------------------------------------------------------
  Total       0.05453     0.05476     0.01907     0.00021    -0.00010     0.00016
  in kB       0.27636     0.27752     0.09667     0.00105    -0.00051     0.00079
  external pressure =        0.22 kB  Pullay stress =        0.00 kB


 VOLUME and BASIS-vectors are now :
 -----------------------------------------------------------------------------
  energy-cutoff  :      330.00
  volume of cell :      316.13
      direct lattice vectors                 reciprocal lattice vectors
     3.427808124  0.000000218  0.000000000     0.291731604  0.168431348  0.000000000
    -1.713904293  2.968568820  0.000000000    -0.000000021  0.336862651 -0.000000000
    -0.000000000  0.000000000 31.066888743     0.000000000  0.000000000  0.032188611

  length of vectors
     3.427808124  3.427808158 31.066888743     0.336862655  0.336862651  0.032188611


 FORCES acting on ions
    electron-ion (+dipol)            ewald-force                    non-local-force                 convergence-correction
 -----------------------------------------------------------------------------------------------
   -.144E-03 0.247E-04 0.471E+02   0.222E-03 -.742E-04 -.528E+02   0.377E-04 -.127E-04 0.567E+01   -.993E-06 -.316E-06 -.100E-03
   0.210E-03 -.127E-03 0.727E+03   -.165E-03 0.100E-03 -.731E+03   0.109E-03 -.619E-04 0.374E+01   -.656E-06 0.609E-06 0.651E-04
   0.660E-04 0.224E-04 -.779E+03   -.570E-04 -.260E-04 0.784E+03   0.115E-04 -.129E-04 -.437E+01   0.759E-07 -.316E-07 0.722E-04
 -----------------------------------------------------------------------------------------------
   0.132E-03 -.795E-04 -.504E+01   -.985E-14 -.116E-13 0.114E-12   0.158E-03 -.874E-04 0.504E+01   -.157E-05 0.261E-06 0.373E-04
 
 
 POSITION                                       TOTAL-FORCE (eV/Angst)
 -----------------------------------------------------------------------------------
     -0.00000      0.00000      3.39361         0.000019     -0.000007     -0.028232
      1.71391      0.98952      2.14694         0.000057     -0.000032     -0.002064
      0.00000      1.97905      5.43024        -0.000075      0.000039      0.030297
 -----------------------------------------------------------------------------------
    total drift:                                0.000288     -0.000167     -0.000732


--------------------------------------------------------------------------------------------------------



  FREE ENERGIE OF THE ION-ELECTRON SYSTEM (eV)
  ---------------------------------------------------
  free  energy   TOTEN  =       -17.03983300 eV

  energy  without entropy=      -17.03983300  energy(sigma->0) =      -17.03983300
 


--------------------------------------------------------------------------------------------------------


    POTLOK:  cpu time      0.7504: real time      0.7506


--------------------------------------------------------------------------------------------------------


     LOOP+:  cpu time    461.6156: real time    463.0055
 -----------------------------------------------------------------------------
|                                                                             |
|           W    W    AA    RRRRR   N    N  II  N    N   GGGG   !!!           |
|           W    W   A  A   R    R  NN   N  II  NN   N  G    G  !!!           |
|           W    W  A    A  R    R  N N  N  II  N N  N  G       !!!           |
|           W WW W  AAAAAA  RRRRR   N  N N  II  N  N N  G  GGG   !            |
|           WW  WW  A    A  R   R   N   NN  II  N   NN  G    G                |
|           W    W  A    A  R    R  N    N  II  N    N   GGGG   !!!           |
|                                                                             |
|     Tetrahedron method does not include variations of the Fermi             |
|     occupations, so forces and stress will be inaccurate. We suggest        |
|     using a different smearing scheme ISMEAR = 1 or 2 for metals in         |
|     relaxations.                                                            |
|                                                                             |
 -----------------------------------------------------------------------------

 vacuum level on the upper side and lower side of the slab         1.744         2.979
    4ORBIT:  cpu time      0.0000: real time      0.0000

 Spin-Orbit-Coupling matrix elements

 Ion:    1  E_soc:     -0.0220279
 l=   1
     0.0000000    -0.0031444    -0.0030923
    -0.0031444     0.0000000    -0.0031444
    -0.0030923    -0.0031444     0.0000000
 l=   2
     0.0000000    -0.0001165     0.0000000    -0.0001165    -0.0002644
    -0.0001165     0.0000000    -0.0003922    -0.0001179    -0.0001165
     0.0000000    -0.0003922     0.0000000    -0.0003923     0.0000000
    -0.0001165    -0.0001179    -0.0003923     0.0000000    -0.0001165
    -0.0002644    -0.0001165     0.0000000    -0.0001165     0.0000000
 l=   3
     0.0000000     0.0000000     0.0000000     0.0000000     0.0000000     0.0000000     0.0000000
     0.0000000     0.0000000     0.0000000     0.0000000     0.0000000     0.0000000     0.0000000
     0.0000000     0.0000000     0.0000000     0.0000000     0.0000000     0.0000000     0.0000000
     0.0000000     0.0000000     0.0000000     0.0000000     0.0000000     0.0000000     0.0000000
     0.0000000     0.0000000     0.0000000     0.0000000     0.0000000     0.0000000     0.0000000
     0.0000000     0.0000000     0.0000000     0.0000000     0.0000000     0.0000000     0.0000000
     0.0000000     0.0000000     0.0000000     0.0000000     0.0000000     0.0000000     0.0000000

 Ion:    2  E_soc:     -0.0022271
 l=   1
     0.0000000    -0.0004085    -0.0002965
    -0.0004085     0.0000000    -0.0004085
    -0.0002965    -0.0004085     0.0000000
 l=   2
     0.0000000     0.0000000     0.0000000     0.0000000     0.0000000
     0.0000000     0.0000000     0.0000000     0.0000000     0.0000000
     0.0000000     0.0000000     0.0000000     0.0000000     0.0000000
     0.0000000     0.0000000     0.0000000     0.0000000     0.0000000
     0.0000000     0.0000000     0.0000000     0.0000000     0.0000000
 l=   3
     0.0000000     0.0000000     0.0000000     0.0000000     0.0000000     0.0000000     0.0000000
     0.0000000     0.0000000     0.0000000     0.0000000     0.0000000     0.0000000     0.0000000
     0.0000000     0.0000000     0.0000000     0.0000000     0.0000000     0.0000000     0.0000000
     0.0000000     0.0000000     0.0000000     0.0000000     0.0000000     0.0000000     0.0000000
     0.0000000     0.0000000     0.0000000     0.0000000     0.0000000     0.0000000     0.0000000
     0.0000000     0.0000000     0.0000000     0.0000000     0.0000000     0.0000000     0.0000000
     0.0000000     0.0000000     0.0000000     0.0000000     0.0000000     0.0000000     0.0000000

 Ion:    3  E_soc:     -0.2218966
 l=   1
     0.0000000    -0.0362984    -0.0380181
    -0.0362984     0.0000000    -0.0362984
    -0.0380181    -0.0362984     0.0000000
 l=   2
     0.0000000    -0.0000232     0.0000000    -0.0000232    -0.0001745
    -0.0000232     0.0000000    -0.0000337     0.0000014    -0.0000232
     0.0000000    -0.0000337     0.0000000    -0.0000337     0.0000000
    -0.0000232     0.0000014    -0.0000337     0.0000000    -0.0000232
    -0.0001745    -0.0000232     0.0000000    -0.0000232     0.0000000
 l=   3
     0.0000000     0.0000000     0.0000000     0.0000000     0.0000000     0.0000000     0.0000000
     0.0000000     0.0000000     0.0000000     0.0000000     0.0000000     0.0000000     0.0000000
     0.0000000     0.0000000     0.0000000     0.0000000     0.0000000     0.0000000     0.0000000
     0.0000000     0.0000000     0.0000000     0.0000000     0.0000000     0.0000000     0.0000000
     0.0000000     0.0000000     0.0000000     0.0000000     0.0000000     0.0000000     0.0000000
     0.0000000     0.0000000     0.0000000     0.0000000     0.0000000     0.0000000     0.0000000
     0.0000000     0.0000000     0.0000000     0.0000000     0.0000000     0.0000000     0.0000000



 total charge

# of ion       s       p       d       tot
------------------------------------------
    1        0.290   6.254   4.090  10.634
    2        1.353   2.369   0.000   3.721
    3        1.407   1.908   0.038   3.354
--------------------------------------------------
tot          3.050  10.531   4.129  17.709



 magnetization (x)

# of ion       s       p       d       tot
------------------------------------------
    1        0.000  -0.000   0.000   0.000
    2       -0.000  -0.000   0.000  -0.000
    3        0.000  -0.000   0.000   0.000
--------------------------------------------------
tot         -0.000  -0.000   0.000   0.000



 magnetization (y)

# of ion       s       p       d       tot
------------------------------------------
    1       -0.000   0.000  -0.000  -0.000
    2       -0.000   0.000   0.000   0.000
    3       -0.000   0.000   0.000   0.000
--------------------------------------------------
tot         -0.000   0.000  -0.000  -0.000



 magnetization (z)

# of ion       s       p       d       tot
------------------------------------------
    1        0.040   0.026   3.067   3.132
    2       -0.008  -0.197   0.000  -0.205
    3       -0.002  -0.129   0.001  -0.130
--------------------------------------------------
tot          0.030  -0.300   3.067   2.797
 
 BZINTS: Fermi energy:   -2.986346;   24.000000 electrons
         Band energy:-0.410984E+03;  BLOECHL correction:   -0.014636
 BZINTS: Fermi energy:   -2.986346;   24.000000 electrons
         Band energy:-0.410984E+03;  BLOECHL correction:   -0.014636
 BZINTS: Fermi energy:   -2.986346;   24.000000 electrons
         Band energy:-0.410984E+03;  BLOECHL correction:   -0.014636
 BZINTS: Fermi energy:   -2.986346;   24.000000 electrons
         Band energy:-0.410984E+03;  BLOECHL correction:   -0.014636

 total amount of memory used by VASP MPI-rank0   174186. kBytes
=======================================================================

   base      :      30000. kBytes
   nonl-proj :      84864. kBytes
   fftplans  :       1362. kBytes
   grid      :       5406. kBytes
   one-center:         62. kBytes
   wavefun   :      52492. kBytes
 
  
  
 General timing and accounting informations for this job:
 ========================================================
  
                  Total CPU time used (sec):      580.544
                            User time (sec):      579.417
                          System time (sec):        1.127
                         Elapsed time (sec):      588.795
  
                   Maximum memory used (kb):      399252.
                   Average memory used (kb):          N/A
  
                          Minor page faults:       131761
                          Major page faults:           35
                 Voluntary context switches:         8335
